   40   40    1    1
  0.3359208E+02  0.8421642E-09  0.8421642E-09  0.2187624E-08  0.5000000E-15
  1.000000000000000E-004
  CAR 
 unknown system                          
    370     54    225
 
  0.8333333E-01  0.8333333E-01  0.0000000E+00  0.1851852E-01
    1      -13.678104   1.000000
    2       -8.905430   1.000000
    3       -7.765290   1.000000
    4       -6.469336   1.000000
    5       -5.849160   1.000000
    6       -5.793681   1.000000
    7       -5.497750   1.000000
    8       -5.426459   1.000000
    9       -5.378960   1.000000
   10       -5.320748   1.000000
   11       -5.284542   1.000000
   12       -5.229352   1.000000
   13       -5.196750   1.000000
   14       -5.138781   1.000000
   15       -4.827001   1.000000
   16       -4.766035   1.000000
   17       -4.747694   1.000000
   18       -4.735571   1.000000
   19       -4.730302   1.000000
   20       -4.632392   1.000000
   21       -4.498774   1.000000
   22       -4.333967   1.000000
   23       -4.274207   1.000000
   24       -4.241273   1.000000
   25       -4.229486   1.000000
   26       -4.150451   1.000000
   27       -4.121727   1.000000
   28       -4.080675   1.000000
   29       -4.030081   1.000000
   30       -3.988405   1.000000
   31       -3.955108   1.000000
   32       -3.916336   1.000000
   33       -3.901990   1.000000
   34       -3.876598   1.000000
   35       -3.856300   1.000000
   36       -3.826180   1.000000
   37       -3.802601   1.000000
   38       -3.792180   1.000000
   39       -3.768511   1.000000
   40       -3.760722   1.000000
   41       -3.713452   1.000000
   42       -3.647462   1.000000
   43       -3.595361   1.000000
   44       -3.507207   1.000000
   45       -3.264028   1.000000
   46       -3.228756   1.000000
   47       -3.210991   1.000000
   48       -3.178884   1.000000
   49       -3.153777   1.000000
   50       -3.130658   1.000000
   51       -3.114149   1.000000
   52       -3.066958   1.000000
   53       -3.026622   1.000000
   54       -3.002696   1.000000
   55       -2.905164   1.000000
   56       -2.884731   1.000000
   57       -2.843841   1.000000
   58       -2.817277   1.000000
   59       -2.653568   1.000000
   60       -2.521800   1.000000
   61       -2.444827   1.000000
   62       -2.375754   1.000000
   63       -2.326735   1.000000
   64       -2.301931   1.000000
   65       -2.283501   1.000000
   66       -2.271248   1.000000
   67       -2.250415   1.000000
   68       -2.214872   1.000000
   69       -2.207334   1.000000
   70       -2.176225   1.000000
   71       -2.153006   1.000000
   72       -2.139996   1.000000
   73       -2.089225   1.000000
   74       -2.063683   1.000000
   75       -2.057296   1.000000
   76       -2.033496   1.000000
   77       -2.023568   1.000000
   78       -2.005798   1.000000
   79       -1.959615   1.000000
   80       -1.931631   1.000000
   81       -1.916878   1.000000
   82       -1.902369   1.000000
   83       -1.886770   1.000000
   84       -1.854588   1.000000
   85       -1.830722   1.000000
   86       -1.805367   1.000000
   87       -1.780050   1.000000
   88       -1.764060   1.000000
   89       -1.660210   1.000000
   90       -1.637965   1.000000
   91       -1.623178   1.000000
   92       -1.600964   1.000000
   93       -1.576910   1.000000
   94       -1.561505   1.000000
   95       -1.537163   1.000000
   96       -1.524834   1.000000
   97       -1.504950   1.000000
   98       -1.491305   1.000000
   99       -1.465502   1.000000
  100       -1.448191   1.000000
  101       -1.418047   1.000000
  102       -1.408553   1.000000
  103       -1.376135   1.000000
  104       -1.329356   1.000000
  105       -1.309627   1.000000
  106       -1.269907   1.000000
  107       -1.257913   1.000000
  108       -1.250912   1.000000
  109       -1.244641   1.000000
  110       -1.210197   1.000000
  111       -1.186480   1.000000
  112       -1.105508   1.000000
  113       -1.096446   1.000000
  114       -0.959838   1.000000
  115       -0.919994   1.000000
  116       -0.854358   1.000000
  117       -0.770553   1.000000
  118       -0.762802   1.000000
  119       -0.727620   1.000000
  120       -0.679634   1.000000
  121       -0.663394   1.000000
  122       -0.626964   1.000000
  123       -0.618680   1.000000
  124       -0.604188   1.000000
  125       -0.531480   1.000000
  126       -0.512515   1.000000
  127       -0.477454   1.000000
  128       -0.421763   1.000000
  129       -0.351843   1.000000
  130       -0.303777   1.000000
  131       -0.279471   1.000000
  132       -0.204749   1.000000
  133       -0.164187   1.000000
  134       -0.122149   1.000000
  135       -0.103889   1.000000
  136       -0.071123   1.000000
  137       -0.067428   1.000000
  138       -0.055536   1.000000
  139       -0.025355   1.000000
  140       -0.006093   0.999999
  141        0.038854   0.999999
  142        0.080423   0.999999
  143        0.092876   0.999998
  144        0.158939   0.999997
  145        0.180440   0.999996
  146        0.223460   0.999994
  147        0.239458   0.999993
  148        0.258233   0.999992
  149        0.277887   0.999990
  150        0.355594   0.999979
  151        0.370890   0.999975
  152        0.392991   0.999969
  153        0.442017   0.999950
  154        0.470552   0.999933
  155        0.495556   0.999914
  156        0.510109   0.999901
  157        0.563890   0.999830
  158        0.586507   0.999786
  159        0.590658   0.999777
  160        0.618047   0.999707
  161        0.624378   0.999688
  162        0.655442   0.999575
  163        0.680805   0.999452
  164        0.708475   0.999277
  165        0.728854   0.999114
  166        0.745447   0.998954
  167        0.801284   0.998174
  168        0.807222   0.998062
  169        0.837924   0.997368
  170        0.841922   0.997261
  171        0.861881   0.996658
  172        0.870095   0.996373
  173        0.890196   0.995569
  174        0.904230   0.994904
  175        0.909605   0.994624
  176        0.948895   0.992058
  177        0.986128   0.988516
  178        0.997068   0.987206
  179        1.040957   0.980295
  180        1.058083   0.976700
  181        1.068590   0.974185
  182        1.102838   0.964021
  183        1.120157   0.957506
  184        1.132119   0.952364
  185        1.150824   0.943124
  186        1.171087   0.931226
  187        1.191945   0.916606
  188        1.207124   0.904245
  189        1.216192   0.896101
  190        1.223378   0.889217
  191        1.239158   0.872692
  192        1.254518   0.854628
  193        1.321315   0.750897
  194        1.424379   0.518182
  195        1.446018   0.464154
  196        1.465023   0.417347
  197        1.501306   0.332586
  198        1.507029   0.320008
  199        1.538029   0.256596
  200        1.619624   0.132424
  201        1.922765   0.007311
  202        2.017255   0.002855
  203        2.184602   0.000537
  204        2.296252   0.000176
  205        2.351173   0.000102
  206        2.513019   0.000020
  207        2.887824   0.000000
  208        3.309801   0.000000
  209        4.159627   0.000000
  210        4.459219   0.000000
  211        4.616452   0.000000
  212        4.775940   0.000000
  213        5.008563   0.000000
  214        5.075061   0.000000
  215        5.391410   0.000000
  216        5.752000   0.000000
  217        5.833782   0.000000
  218        6.222890   0.000000
  219        6.311604   0.000000
  220        6.325312   0.000000
  221        6.574377   0.000000
  222        6.623190   0.000000
  223        6.739491   0.000000
  224        6.815391   0.000000
  225        6.893702   0.000000
 
  0.0000000E+00  0.8333333E-01  0.0000000E+00  0.1851852E-01
    1      -13.678059   1.000000
    2       -8.906071   1.000000
    3       -7.765082   1.000000
    4       -6.469152   1.000000
    5       -5.839923   1.000000
    6       -5.810713   1.000000
    7       -5.493743   1.000000
    8       -5.402232   1.000000
    9       -5.378842   1.000000
   10       -5.326966   1.000000
   11       -5.282674   1.000000
   12       -5.234675   1.000000
   13       -5.222858   1.000000
   14       -5.129781   1.000000
   15       -4.810220   1.000000
   16       -4.776140   1.000000
   17       -4.737835   1.000000
   18       -4.734705   1.000000
   19       -4.717771   1.000000
   20       -4.658509   1.000000
   21       -4.488425   1.000000
   22       -4.329707   1.000000
   23       -4.278163   1.000000
   24       -4.239103   1.000000
   25       -4.227654   1.000000
   26       -4.176800   1.000000
   27       -4.091670   1.000000
   28       -4.072775   1.000000
   29       -4.057757   1.000000
   30       -3.971800   1.000000
   31       -3.950333   1.000000
   32       -3.906681   1.000000
   33       -3.889531   1.000000
   34       -3.888241   1.000000
   35       -3.851280   1.000000
   36       -3.838556   1.000000
   37       -3.804648   1.000000
   38       -3.794992   1.000000
   39       -3.770922   1.000000
   40       -3.756084   1.000000
   41       -3.733771   1.000000
   42       -3.632794   1.000000
   43       -3.596776   1.000000
   44       -3.514356   1.000000
   45       -3.270521   1.000000
   46       -3.232162   1.000000
   47       -3.202586   1.000000
   48       -3.178301   1.000000
   49       -3.148416   1.000000
   50       -3.144239   1.000000
   51       -3.100376   1.000000
   52       -3.065637   1.000000
   53       -3.043947   1.000000
   54       -3.000193   1.000000
   55       -2.900724   1.000000
   56       -2.898148   1.000000
   57       -2.825652   1.000000
   58       -2.816967   1.000000
   59       -2.667881   1.000000
   60       -2.514741   1.000000
   61       -2.448623   1.000000
   62       -2.383610   1.000000
   63       -2.341966   1.000000
   64       -2.292812   1.000000
   65       -2.270425   1.000000
   66       -2.257774   1.000000
   67       -2.254409   1.000000
   68       -2.221318   1.000000
   69       -2.192688   1.000000
   70       -2.181291   1.000000
   71       -2.144889   1.000000
   72       -2.142261   1.000000
   73       -2.106881   1.000000
   74       -2.063729   1.000000
   75       -2.059477   1.000000
   76       -2.035439   1.000000
   77       -2.015674   1.000000
   78       -2.009066   1.000000
   79       -1.967635   1.000000
   80       -1.951916   1.000000
   81       -1.910257   1.000000
   82       -1.900822   1.000000
   83       -1.875175   1.000000
   84       -1.866901   1.000000
   85       -1.815007   1.000000
   86       -1.806512   1.000000
   87       -1.792928   1.000000
   88       -1.759069   1.000000
   89       -1.651399   1.000000
   90       -1.641935   1.000000
   91       -1.638146   1.000000
   92       -1.590712   1.000000
   93       -1.581115   1.000000
   94       -1.560320   1.000000
   95       -1.546028   1.000000
   96       -1.514743   1.000000
   97       -1.500470   1.000000
   98       -1.469614   1.000000
   99       -1.468112   1.000000
  100       -1.452919   1.000000
  101       -1.416989   1.000000
  102       -1.415561   1.000000
  103       -1.377881   1.000000
  104       -1.334842   1.000000
  105       -1.283214   1.000000
  106       -1.275316   1.000000
  107       -1.251549   1.000000
  108       -1.250287   1.000000
  109       -1.245203   1.000000
  110       -1.203592   1.000000
  111       -1.169181   1.000000
  112       -1.151310   1.000000
  113       -1.106944   1.000000
  114       -0.948384   1.000000
  115       -0.911311   1.000000
  116       -0.867992   1.000000
  117       -0.777465   1.000000
  118       -0.764911   1.000000
  119       -0.706596   1.000000
  120       -0.684376   1.000000
  121       -0.653465   1.000000
  122       -0.618661   1.000000
  123       -0.614320   1.000000
  124       -0.578717   1.000000
  125       -0.571004   1.000000
  126       -0.509680   1.000000
  127       -0.495687   1.000000
  128       -0.387410   1.000000
  129       -0.348177   1.000000
  130       -0.302837   1.000000
  131       -0.301234   1.000000
  132       -0.203021   1.000000
  133       -0.183830   1.000000
  134       -0.134511   1.000000
  135       -0.096367   1.000000
  136       -0.071487   1.000000
  137       -0.068751   1.000000
  138       -0.058887   1.000000
  139       -0.032665   1.000000
  140        0.021582   0.999999
  141        0.063417   0.999999
  142        0.072492   0.999999
  143        0.116429   0.999998
  144        0.147549   0.999997
  145        0.207813   0.999995
  146        0.224564   0.999994
  147        0.240631   0.999993
  148        0.250225   0.999993
  149        0.268905   0.999991
  150        0.352637   0.999979
  151        0.353167   0.999979
  152        0.404488   0.999965
  153        0.426718   0.999957
  154        0.466311   0.999936
  155        0.484338   0.999923
  156        0.504934   0.999906
  157        0.553927   0.999846
  158        0.575066   0.999810
  159        0.591805   0.999775
  160        0.631543   0.999665
  161        0.634232   0.999656
  162        0.661274   0.999549
  163        0.682902   0.999440
  164        0.711717   0.999254
  165        0.738320   0.999026
  166        0.743697   0.998972
  167        0.797946   0.998234
  168        0.811995   0.997968
  169        0.839737   0.997320
  170        0.844199   0.997198
  171        0.854980   0.996880
  172        0.860426   0.996706
  173        0.886661   0.995722
  174        0.897652   0.995227
  175        0.900975   0.995067
  176        0.961746   0.990979
  177        0.988972   0.988189
  178        0.996707   0.987251
  179        1.050211   0.978426
  180        1.053235   0.977778
  181        1.079239   0.971368
  182        1.101842   0.964365
  183        1.120853   0.957222
  184        1.133511   0.951729
  185        1.135067   0.951009
  186        1.170687   0.931482
  187        1.196496   0.913061
  188        1.209992   0.901733
  189        1.216166   0.896125
  190        1.224070   0.888534
  191        1.245483   0.865498
  192        1.250821   0.859161
  193        1.334986   0.724459
  194        1.403276   0.570477
  195        1.446650   0.462583
  196        1.465718   0.415657
  197        1.501807   0.331476
  198        1.508400   0.317032
  199        1.534772   0.262859
  200        1.603519   0.152047
  201        1.959708   0.005064
  202        1.996272   0.003519
  203        2.167903   0.000634
  204        2.275556   0.000216
  205        2.377995   0.000078
  206        2.511905   0.000020
  207        2.887189   0.000000
  208        3.336876   0.000000
  209        4.155574   0.000000
  210        4.440400   0.000000
  211        4.597003   0.000000
  212        4.768113   0.000000
  213        5.063254   0.000000
  214        5.069961   0.000000
  215        5.378299   0.000000
  216        5.777391   0.000000
  217        5.828680   0.000000
  218        6.181869   0.000000
  219        6.309771   0.000000
  220        6.318731   0.000000
  221        6.624332   0.000000
  222        6.632861   0.000000
  223        6.735119   0.000000
  224        6.815793   0.000000
  225        7.024633   0.000000
 
 -0.8333333E-01  0.0000000E+00  0.0000000E+00  0.1851852E-01
    1      -13.678103   1.000000
    2       -8.905427   1.000000
    3       -7.765287   1.000000
    4       -6.469340   1.000000
    5       -5.849203   1.000000
    6       -5.793630   1.000000
    7       -5.496137   1.000000
    8       -5.426498   1.000000
    9       -5.380755   1.000000
   10       -5.320773   1.000000
   11       -5.284736   1.000000
   12       -5.230731   1.000000
   13       -5.195050   1.000000
   14       -5.138752   1.000000
   15       -4.827151   1.000000
   16       -4.767120   1.000000
   17       -4.747606   1.000000
   18       -4.735105   1.000000
   19       -4.729320   1.000000
   20       -4.632389   1.000000
   21       -4.498678   1.000000
   22       -4.334170   1.000000
   23       -4.274294   1.000000
   24       -4.241056   1.000000
   25       -4.229712   1.000000
   26       -4.149981   1.000000
   27       -4.121963   1.000000
   28       -4.080975   1.000000
   29       -4.030199   1.000000
   30       -3.988492   1.000000
   31       -3.955094   1.000000
   32       -3.916253   1.000000
   33       -3.901290   1.000000
   34       -3.876574   1.000000
   35       -3.856152   1.000000
   36       -3.825907   1.000000
   37       -3.802569   1.000000
   38       -3.792826   1.000000
   39       -3.768581   1.000000
   40       -3.760972   1.000000
   41       -3.713871   1.000000
   42       -3.647879   1.000000
   43       -3.594433   1.000000
   44       -3.507237   1.000000
   45       -3.264084   1.000000
   46       -3.228572   1.000000
   47       -3.210906   1.000000
   48       -3.178685   1.000000
   49       -3.153817   1.000000
   50       -3.131303   1.000000
   51       -3.114395   1.000000
   52       -3.066987   1.000000
   53       -3.026694   1.000000
   54       -3.002773   1.000000
   55       -2.905208   1.000000
   56       -2.884454   1.000000
   57       -2.843918   1.000000
   58       -2.817187   1.000000
   59       -2.653417   1.000000
   60       -2.521882   1.000000
   61       -2.444949   1.000000
   62       -2.376374   1.000000
   63       -2.326904   1.000000
   64       -2.302396   1.000000
   65       -2.283274   1.000000
   66       -2.271265   1.000000
   67       -2.250990   1.000000
   68       -2.214494   1.000000
   69       -2.207684   1.000000
   70       -2.175212   1.000000
   71       -2.152870   1.000000
   72       -2.140806   1.000000
   73       -2.089500   1.000000
   74       -2.062705   1.000000
   75       -2.057678   1.000000
   76       -2.033488   1.000000
   77       -2.024420   1.000000
   78       -2.005312   1.000000
   79       -1.958638   1.000000
   80       -1.932455   1.000000
   81       -1.915715   1.000000
   82       -1.902510   1.000000
   83       -1.885569   1.000000
   84       -1.853877   1.000000
   85       -1.831525   1.000000
   86       -1.804533   1.000000
   87       -1.780481   1.000000
   88       -1.765975   1.000000
   89       -1.657717   1.000000
   90       -1.639990   1.000000
   91       -1.623133   1.000000
   92       -1.600323   1.000000
   93       -1.576037   1.000000
   94       -1.563222   1.000000
   95       -1.539373   1.000000
   96       -1.523534   1.000000
   97       -1.504640   1.000000
   98       -1.490501   1.000000
   99       -1.464994   1.000000
  100       -1.448245   1.000000
  101       -1.417925   1.000000
  102       -1.408683   1.000000
  103       -1.376615   1.000000
  104       -1.328940   1.000000
  105       -1.310319   1.000000
  106       -1.270409   1.000000
  107       -1.258009   1.000000
  108       -1.250630   1.000000
  109       -1.244017   1.000000
  110       -1.209336   1.000000
  111       -1.185096   1.000000
  112       -1.105973   1.000000
  113       -1.098212   1.000000
  114       -0.959276   1.000000
  115       -0.920188   1.000000
  116       -0.854831   1.000000
  117       -0.770492   1.000000
  118       -0.762700   1.000000
  119       -0.727974   1.000000
  120       -0.680144   1.000000
  121       -0.663591   1.000000
  122       -0.627300   1.000000
  123       -0.618143   1.000000
  124       -0.603609   1.000000
  125       -0.530601   1.000000
  126       -0.512768   1.000000
  127       -0.477156   1.000000
  128       -0.422133   1.000000
  129       -0.351597   1.000000
  130       -0.303407   1.000000
  131       -0.278844   1.000000
  132       -0.204793   1.000000
  133       -0.164258   1.000000
  134       -0.122052   1.000000
  135       -0.104264   1.000000
  136       -0.070126   1.000000
  137       -0.067941   1.000000
  138       -0.055842   1.000000
  139       -0.024714   1.000000
  140       -0.005992   0.999999
  141        0.039728   0.999999
  142        0.080163   0.999999
  143        0.093025   0.999998
  144        0.158816   0.999997
  145        0.180759   0.999996
  146        0.222916   0.999994
  147        0.239805   0.999993
  148        0.258079   0.999992
  149        0.277225   0.999990
  150        0.355674   0.999979
  151        0.369715   0.999976
  152        0.393325   0.999969
  153        0.441950   0.999950
  154        0.469824   0.999934
  155        0.494883   0.999915
  156        0.509974   0.999901
  157        0.563284   0.999831
  158        0.586014   0.999788
  159        0.591308   0.999776
  160        0.618265   0.999707
  161        0.624393   0.999688
  162        0.655801   0.999573
  163        0.681180   0.999450
  164        0.709231   0.999272
  165        0.729115   0.999112
  166        0.745325   0.998956
  167        0.801137   0.998177
  168        0.807595   0.998055
  169        0.837963   0.997367
  170        0.842935   0.997233
  171        0.861269   0.996678
  172        0.869435   0.996396
  173        0.889917   0.995581
  174        0.904474   0.994892
  175        0.908955   0.994659
  176        0.949978   0.991972
  177        0.985330   0.988607
  178        0.997014   0.987212
  179        1.041159   0.980256
  180        1.058190   0.976676
  181        1.067628   0.974426
  182        1.101925   0.964336
  183        1.121144   0.957103
  184        1.132432   0.952222
  185        1.151718   0.942642
  186        1.171057   0.931246
  187        1.193162   0.915671
  188        1.207465   0.903949
  189        1.216971   0.895373
  190        1.223311   0.889283
  191        1.238552   0.873363
  192        1.254026   0.855238
  193        1.320261   0.752863
  194        1.425382   0.515679
  195        1.446240   0.463603
  196        1.463323   0.421485
  197        1.500848   0.333604
  198        1.507273   0.319476
  199        1.537271   0.258045
  200        1.619383   0.132702
  201        1.923692   0.007244
  202        2.017213   0.002856
  203        2.183838   0.000541
  204        2.296748   0.000175
  205        2.349978   0.000103
  206        2.514124   0.000020
  207        2.887929   0.000000
  208        3.309744   0.000000
  209        4.159859   0.000000
  210        4.459764   0.000000
  211        4.615101   0.000000
  212        4.776014   0.000000
  213        5.008755   0.000000
  214        5.074998   0.000000
  215        5.391663   0.000000
  216        5.752409   0.000000
  217        5.834304   0.000000
  218        6.221192   0.000000
  219        6.311151   0.000000
  220        6.325169   0.000000
  221        6.576275   0.000000
  222        6.623497   0.000000
  223        6.739231   0.000000
  224        6.807591   0.000000
  225        7.027826   0.000000
 
  0.2500000E+00  0.8333333E-01  0.0000000E+00  0.1851852E-01
    1      -13.677473   1.000000
    2       -8.891183   1.000000
    3       -7.617159   1.000000
    4       -6.340752   1.000000
    5       -5.962006   1.000000
    6       -5.812780   1.000000
    7       -5.711005   1.000000
    8       -5.607730   1.000000
    9       -5.280389   1.000000
   10       -5.174285   1.000000
   11       -5.147896   1.000000
   12       -5.095839   1.000000
   13       -5.053806   1.000000
   14       -5.022990   1.000000
   15       -4.916156   1.000000
   16       -4.813816   1.000000
   17       -4.776714   1.000000
   18       -4.729348   1.000000
   19       -4.617391   1.000000
   20       -4.518944   1.000000
   21       -4.476369   1.000000
   22       -4.320743   1.000000
   23       -4.276057   1.000000
   24       -4.236604   1.000000
   25       -4.199131   1.000000
   26       -4.146851   1.000000
   27       -4.131815   1.000000
   28       -4.083512   1.000000
   29       -4.047650   1.000000
   30       -4.025756   1.000000
   31       -3.991953   1.000000
   32       -3.985078   1.000000
   33       -3.940123   1.000000
   34       -3.929806   1.000000
   35       -3.890636   1.000000
   36       -3.859506   1.000000
   37       -3.820734   1.000000
   38       -3.781704   1.000000
   39       -3.654044   1.000000
   40       -3.607026   1.000000
   41       -3.584700   1.000000
   42       -3.567330   1.000000
   43       -3.510744   1.000000
   44       -3.463025   1.000000
   45       -3.325364   1.000000
   46       -3.267447   1.000000
   47       -3.256580   1.000000
   48       -3.232609   1.000000
   49       -3.204912   1.000000
   50       -3.168453   1.000000
   51       -3.144792   1.000000
   52       -3.069036   1.000000
   53       -2.998462   1.000000
   54       -2.956980   1.000000
   55       -2.907963   1.000000
   56       -2.894361   1.000000
   57       -2.843072   1.000000
   58       -2.819883   1.000000
   59       -2.694591   1.000000
   60       -2.623281   1.000000
   61       -2.600946   1.000000
   62       -2.521853   1.000000
   63       -2.491783   1.000000
   64       -2.429622   1.000000
   65       -2.393696   1.000000
   66       -2.374884   1.000000
   67       -2.349436   1.000000
   68       -2.326909   1.000000
   69       -2.285171   1.000000
   70       -2.264472   1.000000
   71       -2.228135   1.000000
   72       -2.194689   1.000000
   73       -2.145274   1.000000
   74       -2.124371   1.000000
   75       -2.114481   1.000000
   76       -2.092302   1.000000
   77       -2.075698   1.000000
   78       -2.042802   1.000000
   79       -1.993625   1.000000
   80       -1.924685   1.000000
   81       -1.904227   1.000000
   82       -1.859011   1.000000
   83       -1.831211   1.000000
   84       -1.824514   1.000000
   85       -1.803335   1.000000
   86       -1.774767   1.000000
   87       -1.762233   1.000000
   88       -1.729941   1.000000
   89       -1.704884   1.000000
   90       -1.695040   1.000000
   91       -1.660127   1.000000
   92       -1.632934   1.000000
   93       -1.615716   1.000000
   94       -1.598846   1.000000
   95       -1.576064   1.000000
   96       -1.557370   1.000000
   97       -1.537502   1.000000
   98       -1.525453   1.000000
   99       -1.485981   1.000000
  100       -1.479326   1.000000
  101       -1.450970   1.000000
  102       -1.414887   1.000000
  103       -1.396198   1.000000
  104       -1.371960   1.000000
  105       -1.353667   1.000000
  106       -1.341497   1.000000
  107       -1.301656   1.000000
  108       -1.274530   1.000000
  109       -1.242787   1.000000
  110       -1.198697   1.000000
  111       -1.188381   1.000000
  112       -1.158773   1.000000
  113       -1.114156   1.000000
  114       -1.098848   1.000000
  115       -1.045393   1.000000
  116       -0.994667   1.000000
  117       -0.963783   1.000000
  118       -0.938902   1.000000
  119       -0.901077   1.000000
  120       -0.745953   1.000000
  121       -0.725811   1.000000
  122       -0.688477   1.000000
  123       -0.651378   1.000000
  124       -0.608438   1.000000
  125       -0.599703   1.000000
  126       -0.554513   1.000000
  127       -0.512623   1.000000
  128       -0.439681   1.000000
  129       -0.417063   1.000000
  130       -0.367932   1.000000
  131       -0.342309   1.000000
  132       -0.308787   1.000000
  133       -0.217552   1.000000
  134       -0.198465   1.000000
  135       -0.186294   1.000000
  136       -0.171059   1.000000
  137       -0.139658   1.000000
  138       -0.109850   1.000000
  139       -0.052861   1.000000
  140       -0.033329   1.000000
  141        0.020475   0.999999
  142        0.052031   0.999999
  143        0.114619   0.999998
  144        0.135352   0.999998
  145        0.155209   0.999997
  146        0.173295   0.999997
  147        0.183702   0.999996
  148        0.212010   0.999995
  149        0.250361   0.999993
  150        0.267371   0.999991
  151        0.306171   0.999987
  152        0.330459   0.999983
  153        0.381438   0.999973
  154        0.401453   0.999966
  155        0.422437   0.999959
  156        0.466014   0.999936
  157        0.477146   0.999928
  158        0.503498   0.999907
  159        0.560691   0.999835
  160        0.576966   0.999806
  161        0.621385   0.999697
  162        0.677326   0.999471
  163        0.693335   0.999379
  164        0.755472   0.998844
  165        0.772501   0.998630
  166        0.830449   0.997557
  167        0.841998   0.997259
  168        0.886262   0.995739
  169        0.900601   0.995085
  170        0.954064   0.991640
  171        0.980613   0.989126
  172        0.998071   0.987078
  173        1.040095   0.980461
  174        1.064148   0.975279
  175        1.085286   0.969637
  176        1.109540   0.961623
  177        1.139651   0.948828
  178        1.178756   0.926149
  179        1.191555   0.916904
  180        1.220981   0.891557
  181        1.229302   0.883246
  182        1.269572   0.834910
  183        1.281763   0.817414
  184        1.302440   0.784511
  185        1.317473   0.758015
  186        1.363563   0.663945
  187        1.394769   0.591184
  188        1.401541   0.574722
  189        1.428153   0.508755
  190        1.453446   0.445738
  191        1.465323   0.416617
  192        1.499024   0.337673
  193        1.537824   0.256987
  194        1.602571   0.153274
  195        1.619298   0.132800
  196        1.645909   0.105031
  197        1.696760   0.065925
  198        1.725486   0.050292
  199        1.820405   0.020085
  200        1.905942   0.008638
  201        1.970597   0.004544
  202        2.106427   0.001172
  203        2.371924   0.000082
  204        2.656138   0.000005
  205        2.887729   0.000000
  206        2.987820   0.000000
  207        3.149270   0.000000
  208        3.232604   0.000000
  209        3.987657   0.000000
  210        4.300710   0.000000
  211        4.643959   0.000000
  212        4.820136   0.000000
  213        4.992234   0.000000
  214        5.102444   0.000000
  215        5.341235   0.000000
  216        5.430251   0.000000
  217        5.599213   0.000000
  218        5.809361   0.000000
  219        5.968599   0.000000
  220        6.355133   0.000000