 running on   20 total cores
 distrk:  each k-point on   20 cores,    1 groups
 distr:  one band on    4 cores,    5 groups
 using from now: INCAR     
 vasp.5.4.1 24Jun15 (build Oct 10 2016 12:42:00) complex                        
  
 POSCAR found :  3 types and      40 ions
 scaLAPACK will be used
 LDA part: xc-table for Pade appr. of Perdew
 POSCAR found :  3 types and      40 ions
 POSCAR, INCAR and KPOINTS ok, starting setup
 WARNING: small aliasing (wrap around) errors must be expected
 FFT: planning ...
 WAVECAR not read
 entering main loop
       N       E                     dE             d eps       ncg     rms          rms(c)
DAV:   1     0.220111744193E+04    0.22011E+04   -0.14657E+05 24330   0.117E+03
DAV:   2    -0.878785652432E+02   -0.22890E+04   -0.21156E+04 28330   0.269E+02
DAV:   3    -0.245989357284E+03   -0.15811E+03   -0.14338E+03 29090   0.641E+01
DAV:   4    -0.252798607957E+03   -0.68093E+01   -0.65965E+01 31280   0.129E+01    0.646E+01
RMM:   5    -0.240926350910E+03    0.11872E+02   -0.55579E+01 25767   0.147E+01    0.437E+01
RMM:   6    -0.283036208767E+03   -0.42110E+02   -0.73964E+01 25793   0.131E+01    0.568E+01
RMM:   7    -0.242091275560E+03    0.40945E+02   -0.30154E+01 25144   0.912E+00    0.245E+01
RMM:   8    -0.250693357484E+03   -0.86021E+01   -0.18543E+01 25830   0.671E+00    0.349E+01
RMM:   9    -0.243787575166E+03    0.69058E+01   -0.10624E+01 25931   0.504E+00    0.278E+01
RMM:  10    -0.235843022967E+03    0.79446E+01   -0.36131E+00 25088   0.322E+00    0.104E+01
RMM:  11    -0.235257861997E+03    0.58516E+00   -0.13204E+00 25538   0.184E+00    0.689E+00
RMM:  12    -0.234998373481E+03    0.25949E+00   -0.44421E-01 26007   0.106E+00    0.423E+00
RMM:  13    -0.234896637666E+03    0.10174E+00   -0.19421E-01 25715   0.707E-01    0.225E+00
RMM:  14    -0.234885829895E+03    0.10808E-01   -0.81084E-02 26116   0.455E-01    0.177E+00
RMM:  15    -0.234864143085E+03    0.21687E-01   -0.17108E-02 25806   0.219E-01    0.109E+00
RMM:  16    -0.234857343345E+03    0.67997E-02   -0.11791E-02 25509   0.175E-01    0.766E-01
RMM:  17    -0.234853858074E+03    0.34853E-02   -0.69121E-03 25601   0.132E-01    0.417E-01
RMM:  18    -0.234852804732E+03    0.10533E-02   -0.24763E-03 25895   0.830E-02    0.191E-01
RMM:  19    -0.234852430367E+03    0.37436E-03   -0.68486E-04 26076   0.425E-02    0.137E-01
RMM:  20    -0.234852271823E+03    0.15854E-03   -0.30660E-04 25881   0.285E-02    0.998E-02
RMM:  21    -0.234852262650E+03    0.91725E-05   -0.15373E-04 25913   0.194E-02    0.832E-02
RMM:  22    -0.234852300028E+03   -0.37378E-04   -0.16519E-04 25502   0.190E-02    0.465E-02
RMM:  23    -0.234852401673E+03   -0.10164E-03   -0.90138E-05 25810   0.140E-02    0.342E-02
RMM:  24    -0.234852693980E+03   -0.29231E-03   -0.15075E-04 25104   0.170E-02    0.728E-02
RMM:  25    -0.234852804629E+03   -0.11065E-03   -0.30500E-05 26083   0.817E-03    0.559E-02
RMM:  26    -0.234853063497E+03   -0.25887E-03   -0.27166E-05 25451   0.814E-03    0.225E-02
RMM:  27    -0.234853256868E+03   -0.19337E-03   -0.15503E-05 25882   0.579E-03    0.230E-02
RMM:  28    -0.234853452874E+03   -0.19601E-03   -0.82805E-06 21311   0.381E-03    0.169E-02
RMM:  29    -0.234853629557E+03   -0.17668E-03   -0.70455E-06 19993   0.342E-03    0.108E-02
RMM:  30    -0.234853758660E+03   -0.12910E-03   -0.47185E-06 18682   0.264E-03    0.744E-03
RMM:  31    -0.234853827188E+03   -0.68528E-04   -0.22162E-06 17048   0.186E-03    0.477E-03
RMM:  32    -0.234853864492E+03   -0.37304E-04   -0.84581E-07 15255   0.120E-03    0.353E-03
RMM:  33    -0.234853931369E+03   -0.66877E-04   -0.20449E-06 16249   0.154E-03    0.195E-03
RMM:  34    -0.234853946685E+03   -0.15316E-04   -0.55011E-07 13320   0.903E-04    0.190E-03
RMM:  35    -0.234853963319E+03   -0.16634E-04   -0.76269E-07 14372   0.972E-04    0.173E-03
RMM:  36    -0.234853966441E+03   -0.31217E-05   -0.21549E-07  8833   0.552E-04    0.902E-04
RMM:  37    -0.234853970211E+03   -0.37699E-05   -0.22978E-07  9996   0.620E-04    0.341E-04
RMM:  38    -0.234853970810E+03   -0.59976E-06   -0.59433E-08  6029   0.450E-04
   1 F= -.23485397E+03 E0= -.23381840E+03  d E =-.207115E+01
