   42   42    1    1
  0.3199246E+02  0.8421642E-09  0.8421642E-09  0.2187624E-08  0.5000000E-15
  1.000000000000000E-004
  CAR 
 unknown system                          
    372     54    225
 
  0.8333333E-01  0.8333333E-01  0.0000000E+00  0.1851852E-01
    1      -12.824654   1.000000
    2       -9.039277   1.000000
    3       -7.730690   1.000000
    4       -6.443756   1.000000
    5       -5.609264   1.000000
    6       -5.448602   1.000000
    7       -5.343097   1.000000
    8       -5.335665   1.000000
    9       -5.265717   1.000000
   10       -5.190313   1.000000
   11       -5.185646   1.000000
   12       -5.153667   1.000000
   13       -5.110713   1.000000
   14       -4.741901   1.000000
   15       -4.726311   1.000000
   16       -4.689553   1.000000
   17       -4.680755   1.000000
   18       -4.653920   1.000000
   19       -4.642251   1.000000
   20       -4.398370   1.000000
   21       -4.377038   1.000000
   22       -4.219273   1.000000
   23       -4.182367   1.000000
   24       -4.174527   1.000000
   25       -4.135015   1.000000
   26       -4.099788   1.000000
   27       -4.075942   1.000000
   28       -4.027081   1.000000
   29       -3.977411   1.000000
   30       -3.942813   1.000000
   31       -3.885366   1.000000
   32       -3.854202   1.000000
   33       -3.819349   1.000000
   34       -3.783129   1.000000
   35       -3.773115   1.000000
   36       -3.751822   1.000000
   37       -3.741614   1.000000
   38       -3.719209   1.000000
   39       -3.703563   1.000000
   40       -3.689083   1.000000
   41       -3.651143   1.000000
   42       -3.635888   1.000000
   43       -3.546413   1.000000
   44       -3.534626   1.000000
   45       -3.449997   1.000000
   46       -3.120371   1.000000
   47       -3.113120   1.000000
   48       -3.092641   1.000000
   49       -3.088698   1.000000
   50       -3.072071   1.000000
   51       -3.070549   1.000000
   52       -3.012003   1.000000
   53       -2.966872   1.000000
   54       -2.921386   1.000000
   55       -2.880707   1.000000
   56       -2.825127   1.000000
   57       -2.821148   1.000000
   58       -2.773865   1.000000
   59       -2.748979   1.000000
   60       -2.577172   1.000000
   61       -2.317429   1.000000
   62       -2.281653   1.000000
   63       -2.245198   1.000000
   64       -2.221065   1.000000
   65       -2.205369   1.000000
   66       -2.178641   1.000000
   67       -2.158045   1.000000
   68       -2.124551   1.000000
   69       -2.122233   1.000000
   70       -2.102683   1.000000
   71       -2.099286   1.000000
   72       -2.064416   1.000000
   73       -2.043124   1.000000
   74       -2.026316   1.000000
   75       -2.000531   1.000000
   76       -1.983690   1.000000
   77       -1.956908   1.000000
   78       -1.911184   1.000000
   79       -1.907562   1.000000
   80       -1.871863   1.000000
   81       -1.859362   1.000000
   82       -1.858221   1.000000
   83       -1.834548   1.000000
   84       -1.791742   1.000000
   85       -1.736172   1.000000
   86       -1.729990   1.000000
   87       -1.716492   1.000000
   88       -1.677327   1.000000
   89       -1.615468   1.000000
   90       -1.572943   1.000000
   91       -1.555268   1.000000
   92       -1.534216   1.000000
   93       -1.517759   1.000000
   94       -1.513269   1.000000
   95       -1.495447   1.000000
   96       -1.470122   1.000000
   97       -1.457973   1.000000
   98       -1.417385   1.000000
   99       -1.384124   1.000000
  100       -1.373639   1.000000
  101       -1.371975   1.000000
  102       -1.342887   1.000000
  103       -1.304805   1.000000
  104       -1.240502   1.000000
  105       -1.216604   1.000000
  106       -1.198094   1.000000
  107       -1.192756   1.000000
  108       -1.178099   1.000000
  109       -1.170632   1.000000
  110       -1.136456   1.000000
  111       -1.124411   1.000000
  112       -1.030576   1.000000
  113       -1.003994   1.000000
  114       -0.943965   1.000000
  115       -0.856906   1.000000
  116       -0.844455   1.000000
  117       -0.763357   1.000000
  118       -0.716713   1.000000
  119       -0.690513   1.000000
  120       -0.609767   1.000000
  121       -0.594491   1.000000
  122       -0.573205   1.000000
  123       -0.565188   1.000000
  124       -0.554956   1.000000
  125       -0.498997   1.000000
  126       -0.487562   1.000000
  127       -0.453661   1.000000
  128       -0.420488   1.000000
  129       -0.329282   1.000000
  130       -0.274883   1.000000
  131       -0.185631   1.000000
  132       -0.148136   1.000000
  133       -0.121738   1.000000
  134       -0.099140   1.000000
  135       -0.036009   1.000000
  136       -0.023460   1.000000
  137       -0.016286   1.000000
  138       -0.010300   1.000000
  139        0.019987   1.000000
  140        0.069617   0.999999
  141        0.099235   0.999999
  142        0.126658   0.999999
  143        0.158249   0.999998
  144        0.218579   0.999997
  145        0.236482   0.999996
  146        0.274226   0.999995
  147        0.303391   0.999993
  148        0.330599   0.999991
  149        0.345075   0.999989
  150        0.380105   0.999985
  151        0.411740   0.999979
  152        0.424289   0.999977
  153        0.533790   0.999930
  154        0.546739   0.999920
  155        0.556996   0.999912
  156        0.575940   0.999893
  157        0.609689   0.999850
  158        0.621714   0.999831
  159        0.648439   0.999779
  160        0.655996   0.999762
  161        0.708638   0.999597
  162        0.713108   0.999579
  163        0.757228   0.999345
  164        0.757921   0.999341
  165        0.801341   0.998983
  166        0.813956   0.998846
  167        0.816062   0.998822
  168        0.847275   0.998391
  169        0.869201   0.997997
  170        0.881813   0.997729
  171        0.901548   0.997234
  172        0.908119   0.997047
  173        0.938591   0.995999
  174        0.962801   0.994909
  175        0.974984   0.994253
  176        0.990929   0.993267
  177        0.999661   0.992657
  178        1.023511   0.990697
  179        1.062823   0.986279
  180        1.072937   0.984840
  181        1.112588   0.977628
  182        1.148772   0.968185
  183        1.161372   0.964067
  184        1.182263   0.956085
  185        1.211941   0.941795
  186        1.215462   0.939834
  187        1.239048   0.925030
  188        1.262605   0.906968
  189        1.268787   0.901619
  190        1.272641   0.898147
  191        1.284919   0.886355
  192        1.312231   0.855809
  193        1.319048   0.847191
  194        1.342865   0.813752
  195        1.416174   0.677319
  196        1.513649   0.441944
  197        1.536216   0.387237
  198        1.540115   0.378027
  199        1.579694   0.290342
  200        1.581950   0.285717
  201        1.614746   0.223700
  202        1.928749   0.012318
  203        1.991034   0.006646
  204        2.225544   0.000641
  205        2.319925   0.000249
  206        2.437727   0.000077
  207        2.504945   0.000039
  208        2.627223   0.000012
  209        3.366590   0.000000
  210        4.017149   0.000000
  211        4.478517   0.000000
  212        4.718725   0.000000
  213        4.727953   0.000000
  214        4.935944   0.000000
  215        5.293321   0.000000
  216        5.627442   0.000000
  217        5.800089   0.000000
  218        5.936409   0.000000
  219        6.109648   0.000000
  220        6.296398   0.000000
  221        6.308875   0.000000
  222        6.655182   0.000000
  223        6.743945   0.000000
  224        6.836420   0.000000
  225        7.108126   0.000000
 
  0.0000000E+00  0.8333333E-01  0.0000000E+00  0.1851852E-01
    1      -12.824643   1.000000
    2       -9.038891   1.000000
    3       -7.730777   1.000000
    4       -6.443618   1.000000
    5       -5.602049   1.000000
    6       -5.458046   1.000000
    7       -5.346947   1.000000
    8       -5.332079   1.000000
    9       -5.265582   1.000000
   10       -5.196666   1.000000
   11       -5.173368   1.000000
   12       -5.151145   1.000000
   13       -5.115564   1.000000
   14       -4.760287   1.000000
   15       -4.710990   1.000000
   16       -4.702200   1.000000
   17       -4.664196   1.000000
   18       -4.656479   1.000000
   19       -4.638527   1.000000
   20       -4.395898   1.000000
   21       -4.380332   1.000000
   22       -4.212732   1.000000
   23       -4.190409   1.000000
   24       -4.174322   1.000000
   25       -4.138339   1.000000
   26       -4.111271   1.000000
   27       -4.050606   1.000000
   28       -4.027858   1.000000
   29       -3.991065   1.000000
   30       -3.940125   1.000000
   31       -3.865051   1.000000
   32       -3.851309   1.000000
   33       -3.816306   1.000000
   34       -3.793783   1.000000
   35       -3.777697   1.000000
   36       -3.764877   1.000000
   37       -3.738983   1.000000
   38       -3.723533   1.000000
   39       -3.708278   1.000000
   40       -3.692003   1.000000
   41       -3.652369   1.000000
   42       -3.631291   1.000000
   43       -3.546434   1.000000
   44       -3.524674   1.000000
   45       -3.457439   1.000000
   46       -3.122080   1.000000
   47       -3.110952   1.000000
   48       -3.108078   1.000000
   49       -3.081742   1.000000
   50       -3.071914   1.000000
   51       -3.056024   1.000000
   52       -3.014405   1.000000
   53       -2.968286   1.000000
   54       -2.936819   1.000000
   55       -2.869170   1.000000
   56       -2.832098   1.000000
   57       -2.821801   1.000000
   58       -2.766681   1.000000
   59       -2.746099   1.000000
   60       -2.588078   1.000000
   61       -2.316782   1.000000
   62       -2.282543   1.000000
   63       -2.242141   1.000000
   64       -2.226601   1.000000
   65       -2.195186   1.000000
   66       -2.176460   1.000000
   67       -2.151159   1.000000
   68       -2.135748   1.000000
   69       -2.126421   1.000000
   70       -2.109887   1.000000
   71       -2.087459   1.000000
   72       -2.075606   1.000000
   73       -2.056095   1.000000
   74       -2.010673   1.000000
   75       -1.996139   1.000000
   76       -1.988320   1.000000
   77       -1.955401   1.000000
   78       -1.918339   1.000000
   79       -1.897705   1.000000
   80       -1.881209   1.000000
   81       -1.859543   1.000000
   82       -1.840158   1.000000
   83       -1.817360   1.000000
   84       -1.789213   1.000000
   85       -1.769128   1.000000
   86       -1.725294   1.000000
   87       -1.713926   1.000000
   88       -1.694226   1.000000
   89       -1.598134   1.000000
   90       -1.586907   1.000000
   91       -1.557876   1.000000
   92       -1.545528   1.000000
   93       -1.528377   1.000000
   94       -1.509732   1.000000
   95       -1.493306   1.000000
   96       -1.456535   1.000000
   97       -1.442823   1.000000
   98       -1.413360   1.000000
   99       -1.410527   1.000000
  100       -1.377109   1.000000
  101       -1.350400   1.000000
  102       -1.337604   1.000000
  103       -1.310738   1.000000
  104       -1.233547   1.000000
  105       -1.212629   1.000000
  106       -1.195007   1.000000
  107       -1.192543   1.000000
  108       -1.176326   1.000000
  109       -1.167285   1.000000
  110       -1.143643   1.000000
  111       -1.102671   1.000000
  112       -1.067627   1.000000
  113       -1.032167   1.000000
  114       -0.952760   1.000000
  115       -0.866370   1.000000
  116       -0.807951   1.000000
  117       -0.763721   1.000000
  118       -0.688969   1.000000
  119       -0.663493   1.000000
  120       -0.638595   1.000000
  121       -0.600851   1.000000
  122       -0.581281   1.000000
  123       -0.559786   1.000000
  124       -0.540033   1.000000
  125       -0.524647   1.000000
  126       -0.455755   1.000000
  127       -0.428123   1.000000
  128       -0.364670   1.000000
  129       -0.344796   1.000000
  130       -0.281554   1.000000
  131       -0.179176   1.000000
  132       -0.146643   1.000000
  133       -0.130534   1.000000
  134       -0.070993   1.000000
  135       -0.034379   1.000000
  136       -0.021278   1.000000
  137       -0.009621   1.000000
  138       -0.008182   1.000000
  139        0.006865   1.000000
  140        0.047404   0.999999
  141        0.082116   0.999999
  142        0.114092   0.999999
  143        0.143663   0.999999
  144        0.201841   0.999997
  145        0.235146   0.999996
  146        0.264288   0.999995
  147        0.309137   0.999993
  148        0.324176   0.999991
  149        0.339108   0.999990
  150        0.381046   0.999985
  151        0.417810   0.999978
  152        0.437138   0.999973
  153        0.526750   0.999935
  154        0.544566   0.999922
  155        0.565848   0.999903
  156        0.584591   0.999883
  157        0.608098   0.999853
  158        0.621658   0.999831
  159        0.654940   0.999765
  160        0.688454   0.999671
  161        0.712289   0.999582
  162        0.725500   0.999523
  163        0.732636   0.999488
  164        0.752446   0.999376
  165        0.771503   0.999245
  166        0.821754   0.998753
  167        0.833081   0.998604
  168        0.844840   0.998430
  169        0.875940   0.997858
  170        0.891759   0.997492
  171        0.901785   0.997228
  172        0.920022   0.996675
  173        0.930169   0.996321
  174        0.950351   0.995502
  175        0.963853   0.994856
  176        0.982183   0.993827
  177        0.992973   0.993129
  178        1.022898   0.990754
  179        1.050527   0.987847
  180        1.082616   0.983325
  181        1.121513   0.975591
  182        1.136067   0.971875
  183        1.161811   0.963914
  184        1.177997   0.957842
  185        1.197242   0.949348
  186        1.206126   0.944902
  187        1.236339   0.926887
  188        1.241091   0.923601
  189        1.271489   0.899197
  190        1.284246   0.887030
  191        1.291353   0.879711
  192        1.311634   0.856544
  193        1.323015   0.841984
  194        1.353562   0.796992
  195        1.433976   0.637252
  196        1.510073   0.450783
  197        1.522397   0.420493
  198        1.561488   0.329232
  199        1.570867   0.308861
  200        1.581760   0.286105
  201        1.611564   0.229273
  202        1.881634   0.019587
  203        2.033262   0.004367
  204        2.235298   0.000581
  205        2.331682   0.000222
  206        2.403721   0.000108
  207        2.541909   0.000027
  208        2.604107   0.000015
  209        3.344801   0.000000
  210        4.083323   0.000000
  211        4.473928   0.000000
  212        4.592812   0.000000
  213        4.782072   0.000000
  214        4.972438   0.000000
  215        5.259984   0.000000
  216        5.686623   0.000000
  217        5.801377   0.000000
  218        5.901012   0.000000
  219        6.095874   0.000000
  220        6.285680   0.000000
  221        6.373780   0.000000
  222        6.646385   0.000000
  223        6.719434   0.000000
  224        6.747736   0.000000
  225        6.944152   0.000000
 
 -0.8333333E-01  0.0000000E+00  0.0000000E+00  0.1851852E-01
    1      -12.824641   1.000000
    2       -9.038890   1.000000
    3       -7.730769   1.000000
    4       -6.443615   1.000000
    5       -5.602154   1.000000
    6       -5.456006   1.000000
    7       -5.347717   1.000000
    8       -5.333309   1.000000
    9       -5.265610   1.000000
   10       -5.197483   1.000000
   11       -5.174358   1.000000
   12       -5.150237   1.000000
   13       -5.114701   1.000000
   14       -4.760373   1.000000
   15       -4.710716   1.000000
   16       -4.702714   1.000000
   17       -4.663286   1.000000
   18       -4.656386   1.000000
   19       -4.638824   1.000000
   20       -4.396321   1.000000
   21       -4.379845   1.000000
   22       -4.212790   1.000000
   23       -4.190710   1.000000
   24       -4.174442   1.000000
   25       -4.138218   1.000000
   26       -4.111138   1.000000
   27       -4.050501   1.000000
   28       -4.027745   1.000000
   29       -3.991371   1.000000
   30       -3.939932   1.000000
   31       -3.865307   1.000000
   32       -3.851117   1.000000
   33       -3.815575   1.000000
   34       -3.793054   1.000000
   35       -3.776640   1.000000
   36       -3.763896   1.000000
   37       -3.739597   1.000000
   38       -3.725489   1.000000
   39       -3.709355   1.000000
   40       -3.692410   1.000000
   41       -3.654005   1.000000
   42       -3.630084   1.000000
   43       -3.545118   1.000000
   44       -3.524677   1.000000
   45       -3.457819   1.000000
   46       -3.121401   1.000000
   47       -3.111099   1.000000
   48       -3.107746   1.000000
   49       -3.082954   1.000000
   50       -3.072855   1.000000
   51       -3.055972   1.000000
   52       -3.013675   1.000000
   53       -2.968449   1.000000
   54       -2.936225   1.000000
   55       -2.869339   1.000000
   56       -2.831372   1.000000
   57       -2.822767   1.000000
   58       -2.766656   1.000000
   59       -2.746014   1.000000
   60       -2.587978   1.000000
   61       -2.316843   1.000000
   62       -2.283227   1.000000
   63       -2.242877   1.000000
   64       -2.227510   1.000000
   65       -2.196054   1.000000
   66       -2.176840   1.000000
   67       -2.151477   1.000000
   68       -2.134467   1.000000
   69       -2.126217   1.000000
   70       -2.109464   1.000000
   71       -2.087285   1.000000
   72       -2.074837   1.000000
   73       -2.055851   1.000000
   74       -2.010708   1.000000
   75       -1.997330   1.000000
   76       -1.988319   1.000000
   77       -1.955444   1.000000
   78       -1.919208   1.000000
   79       -1.897238   1.000000
   80       -1.882455   1.000000
   81       -1.859972   1.000000
   82       -1.839157   1.000000
   83       -1.814822   1.000000
   84       -1.785692   1.000000
   85       -1.768170   1.000000
   86       -1.724378   1.000000
   87       -1.717500   1.000000
   88       -1.696631   1.000000
   89       -1.596470   1.000000
   90       -1.587536   1.000000
   91       -1.559074   1.000000
   92       -1.545319   1.000000
   93       -1.529098   1.000000
   94       -1.509758   1.000000
   95       -1.492354   1.000000
   96       -1.456277   1.000000
   97       -1.442290   1.000000
   98       -1.412665   1.000000
   99       -1.409692   1.000000
  100       -1.376914   1.000000
  101       -1.350952   1.000000
  102       -1.337270   1.000000
  103       -1.311840   1.000000
  104       -1.234382   1.000000
  105       -1.213011   1.000000
  106       -1.194991   1.000000
  107       -1.192600   1.000000
  108       -1.175513   1.000000
  109       -1.168228   1.000000
  110       -1.141174   1.000000
  111       -1.101376   1.000000
  112       -1.068839   1.000000
  113       -1.033092   1.000000
  114       -0.954308   1.000000
  115       -0.865158   1.000000
  116       -0.808020   1.000000
  117       -0.764633   1.000000
  118       -0.688925   1.000000
  119       -0.663670   1.000000
  120       -0.639574   1.000000
  121       -0.600844   1.000000
  122       -0.581345   1.000000
  123       -0.559188   1.000000
  124       -0.539682   1.000000
  125       -0.524143   1.000000
  126       -0.454856   1.000000
  127       -0.427970   1.000000
  128       -0.364635   1.000000
  129       -0.344250   1.000000
  130       -0.281607   1.000000
  131       -0.178220   1.000000
  132       -0.146961   1.000000
  133       -0.130242   1.000000
  134       -0.071426   1.000000
  135       -0.034749   1.000000
  136       -0.021309   1.000000
  137       -0.009846   1.000000
  138       -0.007909   1.000000
  139        0.007715   1.000000
  140        0.047363   0.999999
  141        0.083195   0.999999
  142        0.114238   0.999999
  143        0.143417   0.999999
  144        0.201974   0.999997
  145        0.234962   0.999996
  146        0.265252   0.999995
  147        0.309988   0.999993
  148        0.324543   0.999991
  149        0.336455   0.999990
  150        0.381024   0.999985
  151        0.417270   0.999978
  152        0.436699   0.999973
  153        0.525883   0.999935
  154        0.544660   0.999922
  155        0.564573   0.999905
  156        0.585004   0.999883
  157        0.608500   0.999852
  158        0.621605   0.999831
  159        0.655225   0.999764
  160        0.689353   0.999668
  161        0.712765   0.999580
  162        0.725302   0.999524
  163        0.732582   0.999488
  164        0.752579   0.999375
  165        0.772566   0.999237
  166        0.821137   0.998761
  167        0.831750   0.998622
  168        0.845019   0.998427
  169        0.875762   0.997862
  170        0.892139   0.997482
  171        0.902211   0.997216
  172        0.919408   0.996695
  173        0.929160   0.996358
  174        0.950260   0.995507
  175        0.964206   0.994837
  176        0.981731   0.993855
  177        0.992092   0.993188
  178        1.023709   0.990679
  179        1.050668   0.987830
  180        1.082342   0.983370
  181        1.120997   0.975713
  182        1.136127   0.971858
  183        1.161687   0.963957
  184        1.177524   0.958032
  185        1.198725   0.948630
  186        1.207277   0.944299
  187        1.236182   0.926993
  188        1.241720   0.923156
  189        1.272081   0.898659
  190        1.285025   0.886247
  191        1.291227   0.879844
  192        1.311716   0.856443
  193        1.322949   0.842073
  194        1.355079   0.794526
  195        1.430605   0.645009
  196        1.511060   0.448339
  197        1.521281   0.423215
  198        1.561315   0.329615
  199        1.571262   0.308018
  200        1.581022   0.287614
  201        1.610638   0.230913
  202        1.882442   0.019432
  203        2.032654   0.004393
  204        2.234128   0.000588
  205        2.331282   0.000223
  206        2.403994   0.000108
  207        2.542292   0.000027
  208        2.605424   0.000014
  209        3.345163   0.000000
  210        4.082778   0.000000
  211        4.474260   0.000000
  212        4.592456   0.000000
  213        4.781062   0.000000
  214        4.973451   0.000000
  215        5.260486   0.000000
  216        5.686690   0.000000
  217        5.801997   0.000000
  218        5.900671   0.000000
  219        6.095528   0.000000
  220        6.284401   0.000000
  221        6.373070   0.000000
  222        6.660267   0.000000
  223        6.741851   0.000000
  224        6.807363   0.000000
  225        7.077439   0.000000
 
  0.2500000E+00  0.8333333E-01  0.0000000E+00  0.1851852E-01
    1      -12.824425   1.000000
    2       -9.035590   1.000000
    3       -7.576847   1.000000
    4       -6.298145   1.000000
    5       -5.826694   1.000000
    6       -5.659736   1.000000
    7       -5.502104   1.000000
    8       -5.195773   1.000000
    9       -5.121257   1.000000
   10       -5.069968   1.000000
   11       -5.036643   1.000000
   12       -5.025327   1.000000
   13       -4.995800   1.000000
   14       -4.861378   1.000000
   15       -4.744739   1.000000
   16       -4.706095   1.000000
   17       -4.654676   1.000000
   18       -4.576116   1.000000
   19       -4.529450   1.000000
   20       -4.375114   1.000000
   21       -4.342474   1.000000
   22       -4.251207   1.000000
   23       -4.197801   1.000000
   24       -4.137083   1.000000
   25       -4.092084   1.000000
   26       -4.074713   1.000000
   27       -4.054406   1.000000
   28       -4.020357   1.000000
   29       -4.003988   1.000000
   30       -3.968619   1.000000
   31       -3.932012   1.000000
   32       -3.920248   1.000000
   33       -3.878036   1.000000
   34       -3.856551   1.000000
   35       -3.831228   1.000000
   36       -3.788022   1.000000
   37       -3.749886   1.000000
   38       -3.723433   1.000000
   39       -3.623741   1.000000
   40       -3.561217   1.000000
   41       -3.524058   1.000000
   42       -3.498406   1.000000
   43       -3.470212   1.000000
   44       -3.445634   1.000000
   45       -3.372143   1.000000
   46       -3.246487   1.000000
   47       -3.194001   1.000000
   48       -3.166751   1.000000
   49       -3.135322   1.000000
   50       -3.128032   1.000000
   51       -3.077250   1.000000
   52       -3.007132   1.000000
   53       -2.942830   1.000000
   54       -2.891764   1.000000
   55       -2.855194   1.000000
   56       -2.815518   1.000000
   57       -2.792997   1.000000
   58       -2.757778   1.000000
   59       -2.728829   1.000000
   60       -2.605416   1.000000
   61       -2.557934   1.000000
   62       -2.540638   1.000000
   63       -2.374599   1.000000
   64       -2.348972   1.000000
   65       -2.327578   1.000000
   66       -2.287190   1.000000
   67       -2.267189   1.000000
   68       -2.250658   1.000000
   69       -2.200141   1.000000
   70       -2.194327   1.000000
   71       -2.167372   1.000000
   72       -2.117172   1.000000
   73       -2.085172   1.000000
   74       -2.068142   1.000000
   75       -2.049257   1.000000
   76       -2.029057   1.000000
   77       -2.002232   1.000000
   78       -1.975357   1.000000
   79       -1.933841   1.000000
   80       -1.844275   1.000000
   81       -1.824073   1.000000
   82       -1.795201   1.000000
   83       -1.785048   1.000000
   84       -1.776217   1.000000
   85       -1.752451   1.000000
   86       -1.723491   1.000000
   87       -1.704739   1.000000
   88       -1.682468   1.000000
   89       -1.645289   1.000000
   90       -1.619364   1.000000
   91       -1.598825   1.000000
   92       -1.579437   1.000000
   93       -1.542024   1.000000
   94       -1.526325   1.000000
   95       -1.510039   1.000000
   96       -1.503196   1.000000
   97       -1.472169   1.000000
   98       -1.451595   1.000000
   99       -1.421365   1.000000
  100       -1.413744   1.000000
  101       -1.385238   1.000000
  102       -1.347437   1.000000
  103       -1.328847   1.000000
  104       -1.298435   1.000000
  105       -1.268458   1.000000
  106       -1.245933   1.000000
  107       -1.224035   1.000000
  108       -1.205054   1.000000
  109       -1.179287   1.000000
  110       -1.148337   1.000000
  111       -1.124895   1.000000
  112       -1.085831   1.000000
  113       -1.066230   1.000000
  114       -1.038042   1.000000
  115       -0.991668   1.000000
  116       -0.964317   1.000000
  117       -0.913275   1.000000
  118       -0.874668   1.000000
  119       -0.852949   1.000000
  120       -0.791962   1.000000
  121       -0.699035   1.000000
  122       -0.629286   1.000000
  123       -0.605035   1.000000
  124       -0.583765   1.000000
  125       -0.558436   1.000000
  126       -0.520393   1.000000
  127       -0.513155   1.000000
  128       -0.444624   1.000000
  129       -0.387006   1.000000
  130       -0.350126   1.000000
  131       -0.331040   1.000000
  132       -0.263381   1.000000
  133       -0.148470   1.000000
  134       -0.134480   1.000000
  135       -0.115959   1.000000
  136       -0.086779   1.000000
  137       -0.069848   1.000000
  138       -0.027590   1.000000
  139        0.015598   1.000000
  140        0.021607   1.000000
  141        0.056765   0.999999
  142        0.117937   0.999999
  143        0.165878   0.999998
  144        0.203345   0.999997
  145        0.208000   0.999997
  146        0.246003   0.999996
  147        0.277090   0.999995
  148        0.299263   0.999993
  149        0.306614   0.999993
  150        0.333788   0.999991
  151        0.354372   0.999988
  152        0.370824   0.999986
  153        0.405360   0.999981
  154        0.432572   0.999975
  155        0.472366   0.999962
  156        0.485599   0.999957
  157        0.509087   0.999945
  158        0.539556   0.999926
  159        0.581637   0.999887
  160        0.599240   0.999865
  161        0.627275   0.999821
  162        0.689848   0.999666
  163        0.747753   0.999405
  164        0.784915   0.999137
  165        0.821328   0.998758
  166        0.864868   0.998082
  167        0.890254   0.997529
  168        0.905906   0.997112
  169        0.947558   0.995626
  170        0.961190   0.994990
  171        1.014525   0.991490
  172        1.031256   0.989956
  173        1.070698   0.985171
  174        1.106163   0.978991
  175        1.120964   0.975721
  176        1.158744   0.964966
  177        1.181206   0.956526
  178        1.206463   0.944726
  179        1.220020   0.937205
  180        1.256487   0.912003
  181        1.272015   0.898719
  182        1.300842   0.869302
  183        1.312822   0.855078
  184        1.344730   0.810908
  185        1.369888   0.769296
  186        1.385169   0.741069
  187        1.425898   0.655711
  188        1.441731   0.619143
  189        1.466157   0.560120
  190        1.488034   0.505718
  191        1.505478   0.462181
  192        1.542305   0.372892
  193        1.557110   0.338971
  194        1.614411   0.224282
  195        1.645590   0.174700
  196        1.667372   0.145480
  197        1.713080   0.097301
  198        1.763534   0.061104
  199        1.794668   0.045501
  200        1.846228   0.027678
  201        1.989410   0.006754
  202        2.007466   0.005644
  203        2.061757   0.003287
  204        2.332505   0.000220
  205        2.505418   0.000039
  206        2.925517   0.000001
  207        3.069269   0.000000
  208        3.157705   0.000000
  209        3.369345   0.000000
  210        3.952105   0.000000
  211        4.191168   0.000000
  212        4.619188   0.000000
  213        4.845456   0.000000
  214        5.083663   0.000000
  215        5.223518   0.000000
  216        5.394233   0.000000
  217        5.559965   0.000000
  218        5.778560   0.000000
  219        5.897849   0.000000
  220        6.099365   0.000000