unknown system                          
           1
     8.421642    0.000000    0.000000
     4.210821    7.293356    0.000000
     0.000000    0.000000   21.876242
   Pt   C    H 
  36   2   4
Direct configuration=     1
   0.00000000  0.00000000  0.34283768
   0.33333333  0.00000000  0.34283768
   0.66666667  0.00000000  0.34283768
   0.00000000  0.33333333  0.34283768
   0.33333333  0.33333333  0.34283768
   0.66666667  0.33333333  0.34283768
   0.00000000  0.66666667  0.34283768
   0.33333333  0.66666667  0.34283768
   0.66666667  0.66666667  0.34283768
   0.11111111  0.11111111  0.44761256
   0.44444444  0.11111111  0.44761256
   0.77777778  0.11111111  0.44761256
   0.11111111  0.44444444  0.44761256
   0.44444444  0.44444444  0.44761256
   0.77777778  0.44444444  0.44761256
   0.11111111  0.77777778  0.44761256
   0.44444444  0.77777778  0.44761256
   0.77777778  0.77777778  0.44761256
   0.89081184  0.22183169  0.55074309
   0.22410134  0.22340812  0.55188838
   0.55600762  0.22179499  0.55264501
   0.89011955  0.55610029  0.55134985
   0.22419268  0.55185140  0.55324374
   0.55583878  0.55688323  0.55075797
   0.88598494  0.89004293  0.55329412
   0.22158868  0.88756281  0.54985190
   0.55739148  0.89012140  0.55187006
   0.00188142  0.99973661  0.65623790
   0.33034401  0.99545032  0.65373816
   0.66639200  0.00463833  0.66519689
   0.00370872  0.33474723  0.65634965
   0.34032806  0.33132308  0.66518066
   0.67406012  0.33843552  0.65461862
   0.00265217  0.66705452  0.65732156
   0.33520924  0.66654733  0.65619223
   0.66970527  0.66876595  0.65639440
   0.49594417  0.16033706  0.73540382
   0.56876907  0.23103239  0.78476605
   0.42543641  0.09170351  0.75529954
   0.45438242  0.33076682  0.81346941
   0.64352780  0.29815134  0.76732478
   0.66262242  0.11640263  0.81460462
