   6   6   0   0
  0.1333333E+04  0.2000000E-08  0.2000000E-08  0.2000000E-08  0.5000000E-15
  1.000000000000000E-004
  CAR 
 unknown system                          
      1.16972164    -19.77457821  301     -4.34561065      1.00000000
    -19.775  0.0000E+00  0.0000E+00
    -19.705  0.0000E+00  0.0000E+00
    -19.635  0.5254E-02  0.3668E-03
    -19.565  0.5304E-02  0.7371E-03
    -19.495  0.1066E-01  0.1481E-02
    -19.426  0.2139E-01  0.2975E-02
    -19.356  0.4291E-01  0.5970E-02
    -19.286  0.8585E-01  0.1196E-01
    -19.216  0.1710E+00  0.2390E-01
    -19.146  0.3376E+00  0.4747E-01
    -19.076  0.6548E+00  0.9319E-01
    -19.007  0.1228E+01  0.1789E+00
    -18.937  0.2161E+01  0.3298E+00
    -18.867  0.3415E+01  0.5682E+00
    -18.797  0.4573E+01  0.8875E+00
    -18.727  0.4932E+01  0.1232E+01
    -18.658  0.4220E+01  0.1526E+01
    -18.588  0.2953E+01  0.1733E+01
    -18.518  0.1788E+01  0.1857E+01
    -18.448  0.9889E+00  0.1926E+01
    -18.378  0.5199E+00  0.1963E+01
    -18.308  0.2660E+00  0.1981E+01
    -18.239  0.1342E+00  0.1991E+01
    -18.169  0.6725E-01  0.1995E+01
    -18.099  0.3358E-01  0.1998E+01
    -18.029  0.1673E-01  0.1999E+01
    -17.959  0.0000E+00  0.2000E+01
    -17.890  0.0000E+00  0.2000E+01
    -17.820  0.0000E+00  0.2000E+01
    -17.750  0.0000E+00  0.2000E+01
    -17.680  0.0000E+00  0.2000E+01
    -17.610  0.0000E+00  0.2000E+01
    -17.541  0.0000E+00  0.2000E+01
    -17.471  0.0000E+00  0.2000E+01
    -17.401  0.0000E+00  0.2000E+01
    -17.331  0.0000E+00  0.2000E+01
    -17.261  0.0000E+00  0.2000E+01
    -17.191  0.0000E+00  0.2000E+01
    -17.122  0.0000E+00  0.2000E+01
    -17.052  0.0000E+00  0.2000E+01
    -16.982  0.0000E+00  0.2000E+01
    -16.912  0.0000E+00  0.2000E+01
    -16.842  0.0000E+00  0.2000E+01
    -16.773  0.0000E+00  0.2000E+01
    -16.703  0.0000E+00  0.2000E+01
    -16.633  0.0000E+00  0.2000E+01
    -16.563  0.0000E+00  0.2000E+01
    -16.493  0.0000E+00  0.2000E+01
    -16.423  0.0000E+00  0.2000E+01
    -16.354  0.0000E+00  0.2000E+01
    -16.284  0.0000E+00  0.2000E+01
    -16.214  0.0000E+00  0.2000E+01
    -16.144  0.0000E+00  0.2000E+01
    -16.074  0.0000E+00  0.2000E+01
    -16.005  0.0000E+00  0.2000E+01
    -15.935  0.0000E+00  0.2000E+01
    -15.865  0.0000E+00  0.2000E+01
    -15.795  0.0000E+00  0.2000E+01
    -15.725  0.0000E+00  0.2000E+01
    -15.656  0.0000E+00  0.2000E+01
    -15.586  0.0000E+00  0.2000E+01
    -15.516  0.0000E+00  0.2000E+01
    -15.446  0.0000E+00  0.2000E+01
    -15.376  0.0000E+00  0.2000E+01
    -15.306  0.0000E+00  0.2000E+01
    -15.237  0.0000E+00  0.2000E+01
    -15.167  0.0000E+00  0.2000E+01
    -15.097  0.0000E+00  0.2000E+01
    -15.027  0.6886E-02  0.2000E+01
    -14.957  0.6952E-02  0.2001E+01
    -14.888  0.1396E-01  0.2002E+01
    -14.818  0.2803E-01  0.2004E+01
    -14.748  0.5617E-01  0.2008E+01
    -14.678  0.1122E+00  0.2016E+01
    -14.608  0.2229E+00  0.2031E+01
    -14.539  0.4377E+00  0.2062E+01
    -14.469  0.8399E+00  0.2120E+01
    -14.399  0.1543E+01  0.2228E+01
    -14.329  0.2622E+01  0.2411E+01
    -14.259  0.3913E+01  0.2684E+01
    -14.189  0.4840E+01  0.3022E+01
    -14.120  0.4768E+01  0.3355E+01
    -14.050  0.3753E+01  0.3617E+01
    -13.980  0.2465E+01  0.3789E+01
    -13.910  0.1433E+01  0.3889E+01
    -13.840  0.7741E+00  0.3943E+01
    -13.771  0.4019E+00  0.3971E+01
    -13.701  0.2043E+00  0.3986E+01
    -13.631  0.1027E+00  0.3993E+01
    -13.561  0.5139E-01  0.3996E+01
    -13.491  0.2564E-01  0.3998E+01
    -13.421  0.1277E-01  0.3999E+01
    -13.352  0.0000E+00  0.4000E+01
    -13.282  0.0000E+00  0.4000E+01
    -13.212  0.0000E+00  0.4000E+01
    -13.142  0.0000E+00  0.4000E+01
    -13.072  0.0000E+00  0.4000E+01
    -13.003  0.0000E+00  0.4000E+01
    -12.933  0.0000E+00  0.4000E+01
    -12.863  0.0000E+00  0.4000E+01
    -12.793  0.0000E+00  0.4000E+01
    -12.723  0.0000E+00  0.4000E+01
    -12.654  0.0000E+00  0.4000E+01
    -12.584  0.0000E+00  0.4000E+01
    -12.514  0.0000E+00  0.4000E+01
    -12.444  0.0000E+00  0.4000E+01
    -12.374  0.0000E+00  0.4000E+01
    -12.304  0.0000E+00  0.4000E+01
    -12.235  0.9044E-02  0.4001E+01
    -12.165  0.9129E-02  0.4001E+01
    -12.095  0.1833E-01  0.4003E+01
    -12.025  0.3678E-01  0.4005E+01
    -11.955  0.7363E-01  0.4010E+01
    -11.886  0.1469E+00  0.4021E+01
    -11.816  0.2907E+00  0.4041E+01
    -11.746  0.5666E+00  0.4080E+01
    -11.676  0.1072E+01  0.4155E+01
    -11.606  0.1921E+01  0.4289E+01
    -11.536  0.3124E+01  0.4507E+01
    -11.467  0.4361E+01  0.4812E+01
    -11.397  0.4949E+01  0.5157E+01
    -11.327  0.4452E+01  0.5468E+01
    -11.257  0.3243E+01  0.5695E+01
    -11.187  0.2017E+01  0.5835E+01
    -11.118  0.1134E+01  0.5915E+01
    -11.048  0.6013E+00  0.5957E+01
    -10.978  0.3158E+00  0.5979E+01
    -10.908  0.1631E+00  0.5990E+01
    -10.838  0.9198E-01  0.5996E+01
    -10.769  0.6638E-01  0.6001E+01
    -10.699  0.7405E-01  0.6006E+01
    -10.629  0.1187E+00  0.6015E+01
    -10.559  0.2165E+00  0.6030E+01
    -10.489  0.4254E+00  0.6060E+01
    -10.419  0.8173E+00  0.6117E+01
    -10.350  0.1506E+01  0.6222E+01
    -10.280  0.2569E+01  0.6402E+01
    -10.210  0.3860E+01  0.6671E+01
    -10.140  0.4818E+01  0.7007E+01
    -10.070  0.4794E+01  0.7342E+01
    -10.001  0.3807E+01  0.7608E+01
     -9.931  0.2517E+01  0.7784E+01
     -9.861  0.1469E+01  0.7886E+01
     -9.791  0.7956E+00  0.7942E+01
     -9.721  0.4135E+00  0.7971E+01
     -9.651  0.2104E+00  0.7985E+01
     -9.582  0.1058E+00  0.7993E+01
     -9.512  0.5294E-01  0.7996E+01
     -9.442  0.2641E-01  0.7998E+01
     -9.372  0.1316E-01  0.7999E+01
     -9.302  0.7557E-02  0.8001E+01
     -9.233  0.7629E-02  0.8001E+01
     -9.163  0.1532E-01  0.8002E+01
     -9.093  0.3075E-01  0.8004E+01
     -9.023  0.6160E-01  0.8009E+01
     -8.953  0.1230E+00  0.8017E+01
     -8.884  0.2441E+00  0.8034E+01
     -8.814  0.4782E+00  0.8068E+01
     -8.744  0.9136E+00  0.8131E+01
     -8.674  0.1665E+01  0.8248E+01
     -8.604  0.2790E+01  0.8442E+01
     -8.534  0.4074E+01  0.8727E+01
     -8.465  0.4897E+01  0.9069E+01
     -8.395  0.4676E+01  0.9395E+01
     -8.325  0.3581E+01  0.9645E+01
     -8.255  0.2306E+01  0.9806E+01
     -8.185  0.1324E+01  0.9899E+01
     -8.116  0.7107E+00  0.9948E+01
     -8.046  0.3676E+00  0.9974E+01
     -7.976  0.1865E+00  0.9987E+01
     -7.906  0.9371E-01  0.9993E+01
     -7.836  0.4685E-01  0.9997E+01
     -7.767  0.2337E-01  0.9998E+01
     -7.697  0.1164E-01  0.9999E+01
     -7.627  0.0000E+00  0.1000E+02
     -7.557  0.8780E-02  0.1000E+02
     -7.487  0.8863E-02  0.1000E+02
     -7.417  0.1780E-01  0.1000E+02
     -7.348  0.3571E-01  0.1000E+02
     -7.278  0.7150E-01  0.1001E+02
     -7.208  0.1426E+00  0.1002E+02
     -7.138  0.2824E+00  0.1004E+02
     -7.068  0.5510E+00  0.1008E+02
     -6.999  0.1045E+01  0.1015E+02
     -6.929  0.1877E+01  0.1028E+02
     -6.859  0.3068E+01  0.1050E+02
     -6.789  0.4316E+01  0.1080E+02
     -6.719  0.4945E+01  0.1114E+02
     -6.649  0.4493E+01  0.1146E+02
     -6.580  0.3299E+01  0.1169E+02
     -6.510  0.2063E+01  0.1183E+02
     -6.440  0.1164E+01  0.1191E+02
     -6.370  0.6182E+00  0.1196E+02
     -6.300  0.3181E+00  0.1198E+02
     -6.231  0.1610E+00  0.1199E+02
     -6.161  0.8076E-01  0.1199E+02
     -6.091  0.4035E-01  0.1200E+02
     -6.021  0.2012E-01  0.1200E+02
     -5.951  0.1002E-01  0.1200E+02
     -5.882  0.0000E+00  0.1200E+02
     -5.812  0.0000E+00  0.1200E+02
     -5.742  0.0000E+00  0.1200E+02
     -5.672  0.0000E+00  0.1200E+02
     -5.602  0.0000E+00  0.1200E+02
     -5.532  0.0000E+00  0.1200E+02
     -5.463  0.0000E+00  0.1200E+02
     -5.393  0.0000E+00  0.1200E+02
     -5.323  0.0000E+00  0.1200E+02
     -5.253  0.0000E+00  0.1200E+02
     -5.183  0.0000E+00  0.1200E+02
     -5.114  0.0000E+00  0.1200E+02
     -5.044  0.0000E+00  0.1200E+02
     -4.974  0.0000E+00  0.1200E+02
     -4.904  0.0000E+00  0.1200E+02
     -4.834  0.0000E+00  0.1200E+02
     -4.764  0.0000E+00  0.1200E+02
     -4.695  0.0000E+00  0.1200E+02
     -4.625  0.0000E+00  0.1200E+02
     -4.555  0.0000E+00  0.1200E+02
     -4.485  0.0000E+00  0.1200E+02
     -4.415  0.0000E+00  0.1200E+02
     -4.346  0.0000E+00  0.1200E+02
     -4.276  0.0000E+00  0.1200E+02
     -4.206  0.0000E+00  0.1200E+02
     -4.136  0.0000E+00  0.1200E+02
     -4.066  0.0000E+00  0.1200E+02
     -3.997  0.0000E+00  0.1200E+02
     -3.927  0.0000E+00  0.1200E+02
     -3.857  0.0000E+00  0.1200E+02
     -3.787  0.0000E+00  0.1200E+02
     -3.717  0.0000E+00  0.1200E+02
     -3.647  0.0000E+00  0.1200E+02
     -3.578  0.0000E+00  0.1200E+02
     -3.508  0.0000E+00  0.1200E+02
     -3.438  0.0000E+00  0.1200E+02
     -3.368  0.0000E+00  0.1200E+02
     -3.298  0.0000E+00  0.1200E+02
     -3.229  0.0000E+00  0.1200E+02
     -3.159  0.0000E+00  0.1200E+02
     -3.089  0.0000E+00  0.1200E+02
     -3.019  0.0000E+00  0.1200E+02
     -2.949  0.0000E+00  0.1200E+02
     -2.880  0.0000E+00  0.1200E+02
     -2.810  0.0000E+00  0.1200E+02
     -2.740  0.0000E+00  0.1200E+02
     -2.670  0.0000E+00  0.1200E+02
     -2.600  0.0000E+00  0.1200E+02
     -2.530  0.0000E+00  0.1200E+02
     -2.461  0.0000E+00  0.1200E+02
     -2.391  0.0000E+00  0.1200E+02
     -2.321  0.0000E+00  0.1200E+02
     -2.251  0.0000E+00  0.1200E+02
     -2.181  0.0000E+00  0.1200E+02
     -2.112  0.0000E+00  0.1200E+02
     -2.042  0.0000E+00  0.1200E+02
     -1.972  0.0000E+00  0.1200E+02
     -1.902  0.7148E-02  0.1200E+02
     -1.832  0.7216E-02  0.1200E+02
     -1.762  0.1449E-01  0.1200E+02
     -1.693  0.2909E-01  0.1200E+02
     -1.623  0.5829E-01  0.1201E+02
     -1.553  0.1164E+00  0.1202E+02
     -1.483  0.2312E+00  0.1203E+02
     -1.413  0.4535E+00  0.1206E+02
     -1.344  0.8688E+00  0.1212E+02
     -1.274  0.1591E+01  0.1224E+02
     -1.204  0.2689E+01  0.1242E+02
     -1.134  0.3987E+01  0.1270E+02
     -1.064  0.4874E+01  0.1304E+02
     -0.995  0.4751E+01  0.1337E+02
     -0.925  0.3720E+01  0.1363E+02
     -0.855  0.2472E+01  0.1381E+02
     -0.785  0.1530E+01  0.1391E+02
     -0.715  0.1035E+01  0.1399E+02
     -0.645  0.9492E+00  0.1405E+02
     -0.576  0.1255E+01  0.1414E+02
     -0.506  0.2006E+01  0.1428E+02
     -0.436  0.3187E+01  0.1450E+02
     -0.366  0.4496E+01  0.1482E+02
     -0.296  0.5289E+01  0.1518E+02
     -0.227  0.5159E+01  0.1555E+02
     -0.157  0.4586E+01  0.1587E+02
     -0.087  0.4460E+01  0.1618E+02
     -0.017  0.5371E+01  0.1655E+02
      0.053  0.7272E+01  0.1706E+02
      0.123  0.9280E+01  0.1771E+02
      0.192  0.9955E+01  0.1840E+02
      0.262  0.8621E+01  0.1900E+02
      0.332  0.6133E+01  0.1943E+02
      0.402  0.3764E+01  0.1970E+02
      0.472  0.2101E+01  0.1984E+02
      0.541  0.1105E+01  0.1992E+02
      0.611  0.5673E+00  0.1996E+02
      0.681  0.2867E+00  0.1998E+02
      0.751  0.1438E+00  0.1999E+02
      0.821  0.7180E-01  0.2000E+02
      0.890  0.3579E-01  0.2000E+02
      0.960  0.1066E-01  0.2000E+02
      1.030  0.0000E+00  0.2000E+02
      1.100  0.0000E+00  0.2000E+02
      1.170  0.0000E+00  0.2000E+02
