  37  37   0   0
  0.3631576E+02  0.8421642E-09  0.8421642E-09  0.2187624E-08  0.5000000E-15
  1.000000000000000E-004
  CAR 
 unknown system                          
      7.97326316    -12.06662527  301      1.17196943      1.00000000
    -12.067  0.0000E+00  0.0000E+00
    -12.000  0.0000E+00  0.0000E+00
    -11.933  0.2872E-03  0.1918E-04
    -11.866  0.7796E-02  0.5399E-03
    -11.799  0.7677E-02  0.1053E-02
    -11.733  0.1496E-01  0.2052E-02
    -11.666  0.2914E-01  0.3998E-02
    -11.599  0.5666E-01  0.7783E-02
    -11.532  0.1099E+00  0.1512E-01
    -11.465  0.2120E+00  0.2928E-01
    -11.399  0.4047E+00  0.5632E-01
    -11.332  0.7579E+00  0.1069E+00
    -11.265  0.1369E+01  0.1984E+00
    -11.198  0.2320E+01  0.3534E+00
    -11.131  0.3536E+01  0.5896E+00
    -11.065  0.4609E+01  0.8974E+00
    -10.998  0.4922E+01  0.1226E+01
    -10.931  0.4257E+01  0.1511E+01
    -10.864  0.3058E+01  0.1715E+01
    -10.797  0.1915E+01  0.1843E+01
    -10.731  0.1098E+01  0.1916E+01
    -10.664  0.5981E+00  0.1956E+01
    -10.597  0.3165E+00  0.1977E+01
    -10.530  0.1650E+00  0.1988E+01
    -10.463  0.8532E-01  0.1994E+01
    -10.397  0.4394E-01  0.1997E+01
    -10.330  0.2258E-01  0.1998E+01
    -10.263  0.1108E-01  0.1999E+01
    -10.196  0.0000E+00  0.2000E+01
    -10.129  0.0000E+00  0.2000E+01
    -10.063  0.0000E+00  0.2000E+01
     -9.996  0.0000E+00  0.2000E+01
     -9.929  0.0000E+00  0.2000E+01
     -9.862  0.0000E+00  0.2000E+01
     -9.795  0.0000E+00  0.2000E+01
     -9.729  0.0000E+00  0.2000E+01
     -9.662  0.0000E+00  0.2000E+01
     -9.595  0.0000E+00  0.2000E+01
     -9.528  0.0000E+00  0.2000E+01
     -9.461  0.0000E+00  0.2000E+01
     -9.395  0.0000E+00  0.2000E+01
     -9.328  0.0000E+00  0.2000E+01
     -9.261  0.0000E+00  0.2000E+01
     -9.194  0.0000E+00  0.2000E+01
     -9.127  0.0000E+00  0.2000E+01
     -9.061  0.0000E+00  0.2000E+01
     -8.994  0.0000E+00  0.2000E+01
     -8.927  0.0000E+00  0.2000E+01
     -8.860  0.3626E-03  0.2000E+01
     -8.793  0.7723E-03  0.2000E+01
     -8.727  0.1695E-02  0.2000E+01
     -8.660  0.3055E-02  0.2000E+01
     -8.593  0.5581E-02  0.2001E+01
     -8.526  0.1191E-01  0.2002E+01
     -8.459  0.2204E-01  0.2003E+01
     -8.393  0.4409E-01  0.2006E+01
     -8.326  0.8269E-01  0.2012E+01
     -8.259  0.1555E+00  0.2022E+01
     -8.192  0.2823E+00  0.2041E+01
     -8.125  0.4855E+00  0.2073E+01
     -8.059  0.7688E+00  0.2125E+01
     -7.992  0.1104E+01  0.2198E+01
     -7.925  0.1426E+01  0.2294E+01
     -7.858  0.1686E+01  0.2406E+01
     -7.791  0.1855E+01  0.2530E+01
     -7.725  0.1957E+01  0.2661E+01
     -7.658  0.2035E+01  0.2797E+01
     -7.591  0.2122E+01  0.2938E+01
     -7.524  0.2192E+01  0.3085E+01
     -7.457  0.2207E+01  0.3232E+01
     -7.391  0.2186E+01  0.3378E+01
     -7.324  0.2173E+01  0.3523E+01
     -7.257  0.2201E+01  0.3670E+01
     -7.190  0.2271E+01  0.3822E+01
     -7.123  0.2355E+01  0.3980E+01
     -7.057  0.2424E+01  0.4142E+01
     -6.990  0.2480E+01  0.4307E+01
     -6.923  0.2558E+01  0.4478E+01
     -6.856  0.2710E+01  0.4659E+01
     -6.789  0.3008E+01  0.4860E+01
     -6.723  0.3491E+01  0.5094E+01
     -6.656  0.4082E+01  0.5366E+01
     -6.589  0.4594E+01  0.5673E+01
     -6.522  0.4881E+01  0.5999E+01
     -6.455  0.5001E+01  0.6333E+01
     -6.389  0.5141E+01  0.6677E+01
     -6.322  0.5427E+01  0.7039E+01
     -6.255  0.5847E+01  0.7430E+01
     -6.188  0.6334E+01  0.7853E+01
     -6.121  0.6832E+01  0.8310E+01
     -6.055  0.7293E+01  0.8797E+01
     -5.988  0.7711E+01  0.9312E+01
     -5.921  0.8212E+01  0.9861E+01
     -5.854  0.9017E+01  0.1046E+02
     -5.787  0.1016E+02  0.1114E+02
     -5.721  0.1146E+02  0.1191E+02
     -5.654  0.1277E+02  0.1276E+02
     -5.587  0.1411E+02  0.1370E+02
     -5.520  0.1566E+02  0.1475E+02
     -5.453  0.1758E+02  0.1592E+02
     -5.387  0.1983E+02  0.1725E+02
     -5.320  0.2208E+02  0.1872E+02
     -5.253  0.2404E+02  0.2033E+02
     -5.186  0.2570E+02  0.2205E+02
     -5.119  0.2728E+02  0.2387E+02
     -5.053  0.2893E+02  0.2580E+02
     -4.986  0.3055E+02  0.2784E+02
     -4.919  0.3192E+02  0.2998E+02
     -4.852  0.3303E+02  0.3218E+02
     -4.785  0.3427E+02  0.3447E+02
     -4.719  0.3614E+02  0.3689E+02
     -4.652  0.3876E+02  0.3948E+02
     -4.585  0.4181E+02  0.4227E+02
     -4.518  0.4479E+02  0.4526E+02
     -4.451  0.4727E+02  0.4842E+02
     -4.385  0.4903E+02  0.5170E+02
     -4.318  0.5001E+02  0.5504E+02
     -4.251  0.5026E+02  0.5840E+02
     -4.184  0.4992E+02  0.6173E+02
     -4.117  0.4901E+02  0.6501E+02
     -4.051  0.4748E+02  0.6818E+02
     -3.984  0.4537E+02  0.7121E+02
     -3.917  0.4287E+02  0.7408E+02
     -3.850  0.4032E+02  0.7677E+02
     -3.783  0.3829E+02  0.7933E+02
     -3.717  0.3748E+02  0.8184E+02
     -3.650  0.3842E+02  0.8440E+02
     -3.583  0.4091E+02  0.8714E+02
     -3.516  0.4383E+02  0.9007E+02
     -3.449  0.4589E+02  0.9313E+02
     -3.383  0.4666E+02  0.9625E+02
     -3.316  0.4673E+02  0.9938E+02
     -3.249  0.4682E+02  0.1025E+03
     -3.182  0.4719E+02  0.1057E+03
     -3.115  0.4765E+02  0.1088E+03
     -3.049  0.4784E+02  0.1120E+03
     -2.982  0.4760E+02  0.1152E+03
     -2.915  0.4705E+02  0.1184E+03
     -2.848  0.4659E+02  0.1215E+03
     -2.781  0.4677E+02  0.1246E+03
     -2.715  0.4803E+02  0.1278E+03
     -2.648  0.5036E+02  0.1312E+03
     -2.581  0.5335E+02  0.1347E+03
     -2.514  0.5664E+02  0.1385E+03
     -2.447  0.5992E+02  0.1425E+03
     -2.381  0.6278E+02  0.1467E+03
     -2.314  0.6498E+02  0.1511E+03
     -2.247  0.6684E+02  0.1555E+03
     -2.180  0.6900E+02  0.1601E+03
     -2.113  0.7161E+02  0.1649E+03
     -2.047  0.7421E+02  0.1699E+03
     -1.980  0.7626E+02  0.1750E+03
     -1.913  0.7756E+02  0.1802E+03
     -1.846  0.7806E+02  0.1854E+03
     -1.779  0.7775E+02  0.1906E+03
     -1.713  0.7668E+02  0.1957E+03
     -1.646  0.7480E+02  0.2007E+03
     -1.579  0.7175E+02  0.2055E+03
     -1.512  0.6738E+02  0.2100E+03
     -1.445  0.6207E+02  0.2142E+03
     -1.379  0.5665E+02  0.2179E+03
     -1.312  0.5194E+02  0.2214E+03
     -1.245  0.4869E+02  0.2247E+03
     -1.178  0.4745E+02  0.2278E+03
     -1.111  0.4841E+02  0.2311E+03
     -1.045  0.5120E+02  0.2345E+03
     -0.978  0.5489E+02  0.2382E+03
     -0.911  0.5813E+02  0.2421E+03
     -0.844  0.5958E+02  0.2460E+03
     -0.777  0.5866E+02  0.2500E+03
     -0.711  0.5609E+02  0.2537E+03
     -0.644  0.5330E+02  0.2573E+03
     -0.577  0.5138E+02  0.2607E+03
     -0.510  0.5065E+02  0.2641E+03
     -0.443  0.5103E+02  0.2675E+03
     -0.377  0.5226E+02  0.2710E+03
     -0.310  0.5410E+02  0.2746E+03
     -0.243  0.5631E+02  0.2784E+03
     -0.176  0.5851E+02  0.2823E+03
     -0.109  0.6040E+02  0.2863E+03
     -0.043  0.6178E+02  0.2904E+03
      0.024  0.6238E+02  0.2946E+03
      0.091  0.6186E+02  0.2987E+03
      0.158  0.6011E+02  0.3028E+03
      0.225  0.5755E+02  0.3066E+03
      0.291  0.5495E+02  0.3103E+03
      0.358  0.5310E+02  0.3138E+03
      0.425  0.5237E+02  0.3173E+03
      0.492  0.5265E+02  0.3208E+03
      0.559  0.5358E+02  0.3244E+03
      0.625  0.5498E+02  0.3281E+03
      0.692  0.5702E+02  0.3319E+03
      0.759  0.5994E+02  0.3359E+03
      0.826  0.6345E+02  0.3402E+03
      0.893  0.6690E+02  0.3446E+03
      0.959  0.6960E+02  0.3493E+03
      1.026  0.7089E+02  0.3540E+03
      1.093  0.7019E+02  0.3587E+03
      1.160  0.6730E+02  0.3632E+03
      1.227  0.6249E+02  0.3674E+03
      1.293  0.5654E+02  0.3712E+03
      1.360  0.5021E+02  0.3745E+03
      1.427  0.4381E+02  0.3774E+03
      1.494  0.3735E+02  0.3799E+03
      1.560  0.3116E+02  0.3820E+03
      1.627  0.2588E+02  0.3838E+03
      1.694  0.2188E+02  0.3852E+03
      1.761  0.1908E+02  0.3865E+03
      1.828  0.1711E+02  0.3876E+03
      1.894  0.1555E+02  0.3887E+03
      1.961  0.1423E+02  0.3896E+03
      2.028  0.1322E+02  0.3905E+03
      2.095  0.1263E+02  0.3914E+03
      2.162  0.1243E+02  0.3922E+03
      2.228  0.1246E+02  0.3930E+03
      2.295  0.1247E+02  0.3939E+03
      2.362  0.1236E+02  0.3947E+03
      2.429  0.1221E+02  0.3955E+03
      2.496  0.1211E+02  0.3963E+03
      2.562  0.1203E+02  0.3971E+03
      2.629  0.1192E+02  0.3979E+03
      2.696  0.1186E+02  0.3987E+03
      2.763  0.1192E+02  0.3995E+03
      2.830  0.1211E+02  0.4003E+03
      2.896  0.1237E+02  0.4011E+03
      2.963  0.1261E+02  0.4020E+03
      3.030  0.1275E+02  0.4028E+03
      3.097  0.1273E+02  0.4037E+03
      3.164  0.1269E+02  0.4045E+03
      3.230  0.1282E+02  0.4054E+03
      3.297  0.1314E+02  0.4063E+03
      3.364  0.1338E+02  0.4072E+03
      3.431  0.1329E+02  0.4081E+03
      3.498  0.1293E+02  0.4089E+03
      3.564  0.1252E+02  0.4098E+03
      3.631  0.1216E+02  0.4106E+03
      3.698  0.1180E+02  0.4114E+03
      3.765  0.1150E+02  0.4121E+03
      3.832  0.1144E+02  0.4129E+03
      3.898  0.1173E+02  0.4137E+03
      3.965  0.1215E+02  0.4145E+03
      4.032  0.1233E+02  0.4153E+03
      4.099  0.1214E+02  0.4161E+03
      4.166  0.1171E+02  0.4169E+03
      4.232  0.1127E+02  0.4177E+03
      4.299  0.1097E+02  0.4184E+03
      4.366  0.1085E+02  0.4191E+03
      4.433  0.1088E+02  0.4198E+03
      4.500  0.1095E+02  0.4206E+03
      4.566  0.1110E+02  0.4213E+03
      4.633  0.1136E+02  0.4221E+03
      4.700  0.1152E+02  0.4228E+03
      4.767  0.1138E+02  0.4236E+03
      4.834  0.1105E+02  0.4243E+03
      4.900  0.1078E+02  0.4251E+03
      4.967  0.1069E+02  0.4258E+03
      5.034  0.1074E+02  0.4265E+03
      5.101  0.1080E+02  0.4272E+03
      5.168  0.1078E+02  0.4279E+03
      5.234  0.1068E+02  0.4287E+03
      5.301  0.1059E+02  0.4294E+03
      5.368  0.1057E+02  0.4301E+03
      5.435  0.1061E+02  0.4308E+03
      5.502  0.1062E+02  0.4315E+03
      5.568  0.1037E+02  0.4322E+03
      5.635  0.9702E+01  0.4328E+03
      5.702  0.8763E+01  0.4334E+03
      5.769  0.7886E+01  0.4339E+03
      5.836  0.7232E+01  0.4344E+03
      5.902  0.6781E+01  0.4349E+03
      5.969  0.6505E+01  0.4353E+03
      6.036  0.6381E+01  0.4357E+03
      6.103  0.6283E+01  0.4362E+03
      6.170  0.6070E+01  0.4366E+03
      6.236  0.5734E+01  0.4370E+03
      6.303  0.5319E+01  0.4373E+03
      6.370  0.4852E+01  0.4376E+03
      6.437  0.4424E+01  0.4379E+03
      6.504  0.4169E+01  0.4382E+03
      6.570  0.4132E+01  0.4385E+03
      6.637  0.4218E+01  0.4388E+03
      6.704  0.4230E+01  0.4390E+03
      6.771  0.3968E+01  0.4393E+03
      6.838  0.3373E+01  0.4395E+03
      6.904  0.2569E+01  0.4397E+03
      6.971  0.1770E+01  0.4398E+03
      7.038  0.1121E+01  0.4399E+03
      7.105  0.6613E+00  0.4399E+03
      7.172  0.3707E+00  0.4400E+03
      7.238  0.2004E+00  0.4400E+03
      7.305  0.1051E+00  0.4400E+03
      7.372  0.5409E-01  0.4400E+03
      7.439  0.2698E-01  0.4400E+03
      7.506  0.1211E-01  0.4400E+03
      7.572  0.4766E-02  0.4400E+03
      7.639  0.1432E-02  0.4400E+03
      7.706  0.5323E-03  0.4400E+03
      7.773  0.1773E-03  0.4400E+03
      7.840  0.0000E+00  0.4400E+03
      7.906  0.0000E+00  0.4400E+03
      7.973  0.0000E+00  0.4400E+03
