unknown system                          
           1
     8.421642    0.000000    0.000000
     4.210821    7.293356    0.000000
     0.000000    0.000000   21.876242
   Pt   C 
  36   1
Direct configuration=     1
   0.00000000  0.00000000  0.34283768
   0.33333333  0.00000000  0.34283768
   0.66666667  0.00000000  0.34283768
   0.00000000  0.33333333  0.34283768
   0.33333333  0.33333333  0.34283768
   0.66666667  0.33333333  0.34283768
   0.00000000  0.66666667  0.34283768
   0.33333333  0.66666667  0.34283768
   0.66666667  0.66666667  0.34283768
   0.11111111  0.11111111  0.44761256
   0.44444444  0.11111111  0.44761256
   0.77777778  0.11111111  0.44761256
   0.11111111  0.44444444  0.44761256
   0.44444444  0.44444444  0.44761256
   0.77777778  0.44444444  0.44761256
   0.11111111  0.77777778  0.44761256
   0.44444444  0.77777778  0.44761256
   0.77777778  0.77777778  0.44761256
   0.88693345  0.22294440  0.55210425
   0.22317345  0.22295857  0.55213518
   0.55474406  0.22353143  0.55250140
   0.88897493  0.55506638  0.55083427
   0.22369626  0.55458064  0.55250635
   0.55470635  0.55460394  0.55247948
   0.88895682  0.88874008  0.55085864
   0.22310987  0.88682386  0.55210305
   0.55526413  0.88876244  0.55083623
   0.99932871  0.99900635  0.65653331
   0.33431374  0.99901037  0.65651988
   0.66877136  0.99515000  0.65583619
   0.99956608  0.33368021  0.65647233
   0.32406910  0.32365386  0.66261401
   0.68502710  0.32379095  0.66250248
   0.99555018  0.66834141  0.65582304
   0.32404795  0.68476795  0.66247766
   0.66891686  0.66844631  0.65581714
   0.44437422  0.44413056  0.69570069
