  38  38   0   0
  0.3536008E+02  0.8421642E-09  0.8421642E-09  0.2187624E-08  0.5000000E-15
  1.000000000000000E-004
  CAR 
 unknown system                          
      7.80065671    -12.16139268  301      1.28180895      1.00000000
    -12.161  0.0000E+00  0.0000E+00
    -12.095  0.0000E+00  0.0000E+00
    -12.028  0.0000E+00  0.0000E+00
    -11.962  0.9158E-02  0.6094E-03
    -11.895  0.8652E-02  0.1185E-02
    -11.829  0.1682E-01  0.2304E-02
    -11.762  0.3266E-01  0.4477E-02
    -11.696  0.6332E-01  0.8691E-02
    -11.629  0.1224E+00  0.1684E-01
    -11.563  0.2353E+00  0.3249E-01
    -11.496  0.4472E+00  0.6225E-01
    -11.429  0.8322E+00  0.1176E+00
    -11.363  0.1490E+01  0.2167E+00
    -11.296  0.2490E+01  0.3824E+00
    -11.230  0.3720E+01  0.6299E+00
    -11.163  0.4722E+01  0.9441E+00
    -11.097  0.4894E+01  0.1270E+01
    -11.030  0.4115E+01  0.1544E+01
    -10.964  0.2893E+01  0.1736E+01
    -10.897  0.1788E+01  0.1855E+01
    -10.831  0.1018E+01  0.1923E+01
    -10.764  0.5528E+00  0.1960E+01
    -10.698  0.2925E+00  0.1979E+01
    -10.631  0.1526E+00  0.1989E+01
    -10.564  0.7908E-01  0.1994E+01
    -10.498  0.4082E-01  0.1997E+01
    -10.431  0.2103E-01  0.1999E+01
    -10.365  0.1082E-01  0.1999E+01
    -10.298  0.0000E+00  0.2000E+01
    -10.232  0.0000E+00  0.2000E+01
    -10.165  0.0000E+00  0.2000E+01
    -10.099  0.0000E+00  0.2000E+01
    -10.032  0.0000E+00  0.2000E+01
     -9.966  0.0000E+00  0.2000E+01
     -9.899  0.0000E+00  0.2000E+01
     -9.832  0.0000E+00  0.2000E+01
     -9.766  0.0000E+00  0.2000E+01
     -9.699  0.0000E+00  0.2000E+01
     -9.633  0.0000E+00  0.2000E+01
     -9.566  0.0000E+00  0.2000E+01
     -9.500  0.0000E+00  0.2000E+01
     -9.433  0.0000E+00  0.2000E+01
     -9.367  0.0000E+00  0.2000E+01
     -9.300  0.0000E+00  0.2000E+01
     -9.234  0.0000E+00  0.2000E+01
     -9.167  0.0000E+00  0.2000E+01
     -9.101  0.0000E+00  0.2000E+01
     -9.034  0.0000E+00  0.2000E+01
     -8.967  0.0000E+00  0.2000E+01
     -8.901  0.0000E+00  0.2000E+01
     -8.834  0.0000E+00  0.2000E+01
     -8.768  0.3508E-03  0.2000E+01
     -8.701  0.7398E-03  0.2000E+01
     -8.635  0.1030E-02  0.2000E+01
     -8.568  0.3459E-02  0.2000E+01
     -8.502  0.5263E-02  0.2001E+01
     -8.435  0.1115E-01  0.2001E+01
     -8.369  0.2064E-01  0.2003E+01
     -8.302  0.4056E-01  0.2006E+01
     -8.236  0.7753E-01  0.2011E+01
     -8.169  0.1447E+00  0.2020E+01
     -8.102  0.2630E+00  0.2038E+01
     -8.036  0.4537E+00  0.2068E+01
     -7.969  0.7232E+00  0.2116E+01
     -7.903  0.1046E+01  0.2186E+01
     -7.836  0.1364E+01  0.2276E+01
     -7.770  0.1624E+01  0.2385E+01
     -7.703  0.1796E+01  0.2504E+01
     -7.637  0.1896E+01  0.2630E+01
     -7.570  0.1964E+01  0.2761E+01
     -7.504  0.2042E+01  0.2897E+01
     -7.437  0.2117E+01  0.3038E+01
     -7.371  0.2144E+01  0.3180E+01
     -7.304  0.2122E+01  0.3321E+01
     -7.237  0.2101E+01  0.3461E+01
     -7.171  0.2121E+01  0.3602E+01
     -7.104  0.2201E+01  0.3749E+01
     -7.038  0.2321E+01  0.3903E+01
     -6.971  0.2430E+01  0.4065E+01
     -6.905  0.2502E+01  0.4232E+01
     -6.838  0.2583E+01  0.4404E+01
     -6.772  0.2742E+01  0.4586E+01
     -6.705  0.3033E+01  0.4788E+01
     -6.639  0.3482E+01  0.5020E+01
     -6.572  0.4034E+01  0.5288E+01
     -6.505  0.4564E+01  0.5592E+01
     -6.439  0.4952E+01  0.5922E+01
     -6.372  0.5210E+01  0.6268E+01
     -6.306  0.5461E+01  0.6632E+01
     -6.239  0.5817E+01  0.7019E+01
     -6.173  0.6305E+01  0.7439E+01
     -6.106  0.6948E+01  0.7901E+01
     -6.040  0.7775E+01  0.8418E+01
     -5.973  0.8650E+01  0.8994E+01
     -5.907  0.9318E+01  0.9614E+01
     -5.840  0.9541E+01  0.1025E+02
     -5.774  0.9313E+01  0.1087E+02
     -5.707  0.8918E+01  0.1146E+02
     -5.640  0.8819E+01  0.1205E+02
     -5.574  0.9349E+01  0.1267E+02
     -5.507  0.1060E+02  0.1338E+02
     -5.441  0.1249E+02  0.1421E+02
     -5.374  0.1484E+02  0.1520E+02
     -5.308  0.1741E+02  0.1635E+02
     -5.241  0.2002E+02  0.1769E+02
     -5.175  0.2260E+02  0.1919E+02
     -5.108  0.2514E+02  0.2086E+02
     -5.042  0.2755E+02  0.2270E+02
     -4.975  0.2963E+02  0.2467E+02
     -4.909  0.3118E+02  0.2675E+02
     -4.842  0.3227E+02  0.2889E+02
     -4.775  0.3315E+02  0.3110E+02
     -4.709  0.3423E+02  0.3338E+02
     -4.642  0.3583E+02  0.3576E+02
     -4.576  0.3803E+02  0.3829E+02
     -4.509  0.4056E+02  0.4099E+02
     -4.443  0.4315E+02  0.4386E+02
     -4.376  0.4550E+02  0.4689E+02
     -4.310  0.4738E+02  0.5005E+02
     -4.243  0.4846E+02  0.5327E+02
     -4.177  0.4859E+02  0.5651E+02
     -4.110  0.4789E+02  0.5969E+02
     -4.043  0.4672E+02  0.6280E+02
     -3.977  0.4530E+02  0.6582E+02
     -3.910  0.4358E+02  0.6872E+02
     -3.844  0.4155E+02  0.7149E+02
     -3.777  0.3956E+02  0.7412E+02
     -3.711  0.3812E+02  0.7666E+02
     -3.644  0.3761E+02  0.7916E+02
     -3.578  0.3826E+02  0.8171E+02
     -3.511  0.4000E+02  0.8437E+02
     -3.445  0.4246E+02  0.8720E+02
     -3.378  0.4502E+02  0.9020E+02
     -3.312  0.4710E+02  0.9333E+02
     -3.245  0.4849E+02  0.9656E+02
     -3.178  0.4924E+02  0.9984E+02
     -3.112  0.4960E+02  0.1031E+03
     -3.045  0.4979E+02  0.1065E+03
     -2.979  0.4992E+02  0.1098E+03
     -2.912  0.4982E+02  0.1131E+03
     -2.846  0.4919E+02  0.1164E+03
     -2.779  0.4802E+02  0.1196E+03
     -2.713  0.4691E+02  0.1227E+03
     -2.646  0.4676E+02  0.1258E+03
     -2.580  0.4813E+02  0.1290E+03
     -2.513  0.5071E+02  0.1324E+03
     -2.447  0.5378E+02  0.1360E+03
     -2.380  0.5695E+02  0.1397E+03
     -2.313  0.6010E+02  0.1437E+03
     -2.247  0.6284E+02  0.1479E+03
     -2.180  0.6490E+02  0.1523E+03
     -2.114  0.6664E+02  0.1567E+03
     -2.047  0.6877E+02  0.1613E+03
     -1.981  0.7148E+02  0.1660E+03
     -1.914  0.7412E+02  0.1710E+03
     -1.848  0.7606E+02  0.1760E+03
     -1.781  0.7733E+02  0.1812E+03
     -1.715  0.7814E+02  0.1864E+03
     -1.648  0.7841E+02  0.1916E+03
     -1.582  0.7781E+02  0.1968E+03
     -1.515  0.7589E+02  0.2018E+03
     -1.448  0.7227E+02  0.2066E+03
     -1.382  0.6718E+02  0.2111E+03
     -1.315  0.6146E+02  0.2152E+03
     -1.249  0.5610E+02  0.2189E+03
     -1.182  0.5187E+02  0.2224E+03
     -1.116  0.4930E+02  0.2257E+03
     -1.049  0.4861E+02  0.2289E+03
     -0.983  0.4962E+02  0.2322E+03
     -0.916  0.5198E+02  0.2357E+03
     -0.850  0.5509E+02  0.2393E+03
     -0.783  0.5778E+02  0.2432E+03
     -0.716  0.5876E+02  0.2471E+03
     -0.650  0.5763E+02  0.2509E+03
     -0.583  0.5539E+02  0.2546E+03
     -0.517  0.5343E+02  0.2582E+03
     -0.450  0.5245E+02  0.2617E+03
     -0.384  0.5247E+02  0.2652E+03
     -0.317  0.5311E+02  0.2687E+03
     -0.251  0.5399E+02  0.2723E+03
     -0.184  0.5509E+02  0.2760E+03
     -0.118  0.5667E+02  0.2797E+03
     -0.051  0.5876E+02  0.2836E+03
      0.015  0.6091E+02  0.2877E+03
      0.082  0.6261E+02  0.2919E+03
      0.149  0.6341E+02  0.2961E+03
      0.215  0.6286E+02  0.3003E+03
      0.282  0.6084E+02  0.3043E+03
      0.348  0.5791E+02  0.3082E+03
      0.415  0.5516E+02  0.3118E+03
      0.481  0.5352E+02  0.3154E+03
      0.548  0.5307E+02  0.3189E+03
      0.614  0.5336E+02  0.3225E+03
      0.681  0.5403E+02  0.3261E+03
      0.747  0.5513E+02  0.3298E+03
      0.814  0.5715E+02  0.3336E+03
      0.880  0.6032E+02  0.3376E+03
      0.947  0.6411E+02  0.3419E+03
      1.014  0.6758E+02  0.3464E+03
      1.080  0.7001E+02  0.3510E+03
      1.147  0.7096E+02  0.3557E+03
      1.213  0.7007E+02  0.3604E+03
      1.280  0.6711E+02  0.3649E+03
      1.346  0.6232E+02  0.3690E+03
      1.413  0.5641E+02  0.3728E+03
      1.479  0.5010E+02  0.3761E+03
      1.546  0.4357E+02  0.3790E+03
      1.612  0.3693E+02  0.3815E+03
      1.679  0.3078E+02  0.3835E+03
      1.746  0.2579E+02  0.3852E+03
      1.812  0.2202E+02  0.3867E+03
      1.879  0.1912E+02  0.3880E+03
      1.945  0.1688E+02  0.3891E+03
      2.012  0.1524E+02  0.3901E+03
      2.078  0.1407E+02  0.3911E+03
      2.145  0.1325E+02  0.3919E+03
      2.211  0.1266E+02  0.3928E+03
      2.278  0.1219E+02  0.3936E+03
      2.344  0.1181E+02  0.3944E+03
      2.411  0.1151E+02  0.3952E+03
      2.477  0.1131E+02  0.3959E+03
      2.544  0.1125E+02  0.3967E+03
      2.611  0.1141E+02  0.3974E+03
      2.677  0.1174E+02  0.3982E+03
      2.744  0.1215E+02  0.3990E+03
      2.810  0.1254E+02  0.3998E+03
      2.877  0.1275E+02  0.4007E+03
      2.943  0.1266E+02  0.4015E+03
      3.010  0.1242E+02  0.4024E+03
      3.076  0.1235E+02  0.4032E+03
      3.143  0.1264E+02  0.4040E+03
      3.209  0.1312E+02  0.4049E+03
      3.276  0.1339E+02  0.4058E+03
      3.342  0.1317E+02  0.4067E+03
      3.409  0.1248E+02  0.4075E+03
      3.476  0.1165E+02  0.4083E+03
      3.542  0.1104E+02  0.4090E+03
      3.609  0.1091E+02  0.4097E+03
      3.675  0.1118E+02  0.4105E+03
      3.742  0.1152E+02  0.4112E+03
      3.808  0.1166E+02  0.4120E+03
      3.875  0.1160E+02  0.4128E+03
      3.941  0.1146E+02  0.4136E+03
      4.008  0.1147E+02  0.4143E+03
      4.074  0.1162E+02  0.4151E+03
      4.141  0.1173E+02  0.4159E+03
      4.207  0.1159E+02  0.4166E+03
      4.274  0.1120E+02  0.4174E+03
      4.341  0.1076E+02  0.4181E+03
      4.407  0.1057E+02  0.4188E+03
      4.474  0.1078E+02  0.4195E+03
      4.540  0.1125E+02  0.4203E+03
      4.607  0.1169E+02  0.4211E+03
      4.673  0.1186E+02  0.4218E+03
      4.740  0.1168E+02  0.4226E+03
      4.806  0.1123E+02  0.4234E+03
      4.873  0.1076E+02  0.4241E+03
      4.939  0.1044E+02  0.4248E+03
      5.006  0.1033E+02  0.4255E+03
      5.073  0.1036E+02  0.4262E+03
      5.139  0.1046E+02  0.4269E+03
      5.206  0.1053E+02  0.4276E+03
      5.272  0.1062E+02  0.4283E+03
      5.339  0.1081E+02  0.4290E+03
      5.405  0.1102E+02  0.4297E+03
      5.472  0.1110E+02  0.4305E+03
      5.538  0.1097E+02  0.4312E+03
      5.605  0.1063E+02  0.4319E+03
      5.671  0.1006E+02  0.4326E+03
      5.738  0.9253E+01  0.4332E+03
      5.804  0.8391E+01  0.4337E+03
      5.871  0.7715E+01  0.4342E+03
      5.938  0.7326E+01  0.4347E+03
      6.004  0.7186E+01  0.4352E+03
      6.071  0.7215E+01  0.4357E+03
      6.137  0.7302E+01  0.4362E+03
      6.204  0.7287E+01  0.4367E+03
      6.270  0.7056E+01  0.4371E+03
      6.337  0.6638E+01  0.4376E+03
      6.403  0.6149E+01  0.4380E+03
      6.470  0.5643E+01  0.4384E+03
      6.536  0.5104E+01  0.4387E+03
      6.603  0.4540E+01  0.4390E+03
      6.669  0.3974E+01  0.4393E+03
      6.736  0.3377E+01  0.4395E+03
      6.803  0.2691E+01  0.4397E+03
      6.869  0.1951E+01  0.4398E+03
      6.936  0.1271E+01  0.4399E+03
      7.002  0.7567E+00  0.4399E+03
      7.069  0.4217E+00  0.4400E+03
      7.135  0.2261E+00  0.4400E+03
      7.202  0.1184E+00  0.4400E+03
      7.268  0.5982E-01  0.4400E+03
      7.335  0.2992E-01  0.4400E+03
      7.401  0.1458E-01  0.4400E+03
      7.468  0.6603E-02  0.4400E+03
      7.534  0.2650E-02  0.4400E+03
      7.601  0.0000E+00  0.4400E+03
      7.668  0.0000E+00  0.4400E+03
      7.734  0.0000E+00  0.4400E+03
      7.801  0.0000E+00  0.4400E+03
