unknown system                          
           1
     8.421642    0.000000    0.000000
     4.210821    7.293356    0.000000
     0.000000    0.000000   21.876242
   Pt   C    H 
  36   1   1
Direct configuration=     1
   0.00000000  0.00000000  0.34283768
   0.33333333  0.00000000  0.34283768
   0.66666667  0.00000000  0.34283768
   0.00000000  0.33333333  0.34283768
   0.33333333  0.33333333  0.34283768
   0.66666667  0.33333333  0.34283768
   0.00000000  0.66666667  0.34283768
   0.33333333  0.66666667  0.34283768
   0.66666667  0.66666667  0.34283768
   0.11111111  0.11111111  0.44761256
   0.44444444  0.11111111  0.44761256
   0.77777778  0.11111111  0.44761256
   0.11111111  0.44444444  0.44761256
   0.44444444  0.44444444  0.44761256
   0.77777778  0.44444444  0.44761256
   0.11111111  0.77777778  0.44761256
   0.44444444  0.77777778  0.44761256
   0.77777778  0.77777778  0.44761256
   0.88706171  0.22270836  0.55197431
   0.22317109  0.22268400  0.55197526
   0.55496162  0.22299928  0.55240074
   0.88896641  0.55474178  0.55101925
   0.22327025  0.55458533  0.55240215
   0.55491142  0.55465699  0.55243798
   0.88900367  0.88864281  0.55103160
   0.22302540  0.88667432  0.55195033
   0.55512154  0.88865425  0.55101056
   0.99986853  0.99886464  0.65645076
   0.33309637  0.99874989  0.65640106
   0.66851218  0.99492351  0.65622665
   0.99990558  0.33207826  0.65641379
   0.32958538  0.32879713  0.66263379
   0.67372077  0.32879151  0.66272622
   0.99556726  0.66782838  0.65619516
   0.32967796  0.67257302  0.66273802
   0.66874887  0.66789261  0.65620526
   0.44434811  0.44303213  0.71219407
   0.44430597  0.44280093  0.76251615
