 vasp.5.4.1 24Jun15 (build Oct 10 2016 12:42:00) complex                        
  
 executed on           IFC91_ompi date 2018.05.20  21:53:07
 running on   20 total cores
 distrk:  each k-point on   20 cores,    1 groups
 distr:  one band on NCORES_PER_BAND=   4 cores,    5 groups


--------------------------------------------------------------------------------------------------------


 INCAR:
 POTCAR:    PAW_PBE Pt 04Feb2005                  
 POTCAR:    PAW_PBE C 08Apr2002                   
 POTCAR:    PAW_PBE Pt 04Feb2005                  
   VRHFIN =Pt: s1d9                                                             
   LEXCH  = PE                                                                  
   EATOM  =   729.1176 eV,   53.5886 Ry                                         
                                                                                
   TITEL  = PAW_PBE Pt 04Feb2005                                                
   LULTRA =        F    use ultrasoft PP ?                                      
   IUNSCR =        1    unscreen: 0-lin 1-nonlin 2-no                           
   RPACOR =    2.330    partial core radius                                     
   POMASS =  195.080; ZVAL   =   10.000    mass and valenz                      
   RCORE  =    2.600    outmost cutoff radius                                   
   RWIGS  =    2.750; RWIGS  =    1.455    wigner-seitz radius (au A)           
   ENMAX  =  230.283; ENMIN  =  172.712 eV                                      
   ICORE  =        3    local potential                                         
   LCOR   =        T    correct aug charges                                     
   LPAW   =        T    paw PP                                                  
   EAUG   =  358.966                                                            
   DEXC   =    0.000                                                            
   RMAX   =    2.658    core radius for proj-oper                               
   RAUG   =    1.300    factor for augmentation sphere                          
   RDEP   =    2.761    radius for radial grids                                 
   RDEPT  =    2.203    core radius for aug-charge                              
                                                                                
   Atomic configuration                                                         
   16 entries                                                                   
     n  l   j            E        occ.                                          
     1  0  0.50    -78401.1885   2.0000                                         
     2  0  0.50    -13770.7750   2.0000                                         
     2  1  1.50    -11931.0468   6.0000                                         
     3  0  0.50     -3234.7234   2.0000                                         
     3  1  1.50     -2699.2216   6.0000                                         
     3  2  2.50     -2119.5714  10.0000                                         
     4  0  0.50      -695.1528   2.0000                                         
     4  1  1.50      -519.6034   6.0000                                         
     4  2  2.50      -306.6786  10.0000                                         
     4  3  3.50       -70.1041  14.0000                                         
     5  0  0.50      -101.7747   2.0000                                         
     5  1  1.50       -55.9873   6.0000                                         
     5  2  2.50        -6.1423   9.0000                                         
     6  0  0.50        -5.6573   1.0000                                         
     6  1  1.50        -6.8029   0.0000                                         
     5  3  2.50        -1.3606   0.0000                                         
   Description                                                                  
     l       E           TYP  RCUT    TYP  RCUT                                 
     2     -6.1423404     23  2.500                                             
     2     -7.5029230     23  2.500                                             
     0     -5.6573207     23  2.500                                             
     0      0.7416693     23  2.500                                             
     1     -2.7211652     23  2.600                                             
     1     20.4087390     23  2.600                                             
     3     -1.3605826     23  2.500                                             
  local pseudopotential read in
  partial core-charges read in
  partial kinetic energy density read in
  atomic valenz-charges read in
  non local Contribution for L=           2  read in
    real space projection operators read in
  non local Contribution for L=           2  read in
    real space projection operators read in
  non local Contribution for L=           0  read in
    real space projection operators read in
  non local Contribution for L=           0  read in
    real space projection operators read in
  non local Contribution for L=           1  read in
    real space projection operators read in
  non local Contribution for L=           1  read in
    real space projection operators read in
    PAW grid and wavefunctions read in
 
   number of l-projection  operators is LMAX  =           6
   number of lm-projection operators is LMMAX =          18
 
 POTCAR:    PAW_PBE C 08Apr2002                   
   VRHFIN =C: s2p2                                                              
   LEXCH  = PE                                                                  
   EATOM  =   147.1560 eV,   10.8157 Ry                                         
                                                                                
   TITEL  = PAW_PBE C 08Apr2002                                                 
   LULTRA =        F    use ultrasoft PP ?                                      
   IUNSCR =        1    unscreen: 0-lin 1-nonlin 2-no                           
   RPACOR =    1.200    partial core radius                                     
   POMASS =   12.011; ZVAL   =    4.000    mass and valenz                      
   RCORE  =    1.500    outmost cutoff radius                                   
   RWIGS  =    1.630; RWIGS  =    0.863    wigner-seitz radius (au A)           
   ENMAX  =  400.000; ENMIN  =  300.000 eV                                      
   ICORE  =        2    local potential                                         
   LCOR   =        T    correct aug charges                                     
   LPAW   =        T    paw PP                                                  
   EAUG   =  644.873                                                            
   DEXC   =    0.000                                                            
   RMAX   =    1.529    core radius for proj-oper                               
   RAUG   =    1.300    factor for augmentation sphere                          
   RDEP   =    1.501    radius for radial grids                                 
   RDEPT  =    1.300    core radius for aug-charge                              
                                                                                
   Atomic configuration                                                         
    4 entries                                                                   
     n  l   j            E        occ.                                          
     1  0  0.50      -273.3789   2.0000                                         
     2  0  0.50       -13.7508   2.0000                                         
     2  1  0.50        -5.2854   2.0000                                         
     3  2  1.50        -5.4423   0.0000                                         
   Description                                                                  
     l       E           TYP  RCUT    TYP  RCUT                                 
     0    -13.7508458     23  1.200                                             
     0     -8.2022199     23  1.200                                             
     1     -5.2854383     23  1.500                                             
     1     34.0145650     23  1.500                                             
     2     -5.4423304      7  1.500                                             
  local pseudopotential read in
  partial core-charges read in
  partial kinetic energy density read in
  atomic valenz-charges read in
  non local Contribution for L=           0  read in
    real space projection operators read in
  non local Contribution for L=           0  read in
    real space projection operators read in
  non local Contribution for L=           1  read in
    real space projection operators read in
  non local Contribution for L=           1  read in
    real space projection operators read in
    PAW grid and wavefunctions read in
 
   number of l-projection  operators is LMAX  =           4
   number of lm-projection operators is LMMAX =           8
 
 Optimization of the real space projectors (new method)

 maximal supplied QI-value         = 14.36
 optimisation between [QCUT,QGAM] = [ 10.20, 20.39] = [ 29.12,116.47] Ry 
 Optimized for a Real-space Cutoff    1.51 Angstroem

   l    n(q)    QCUT    max X(q) W(low)/X(q) W(high)/X(q)  e(spline) 
   2      8    10.197    66.195    0.45E-03    0.45E-03    0.14E-06
   2      8    10.197    64.643    0.46E-03    0.46E-03    0.14E-06
   0      9    10.197    95.520    0.15E-03    0.11E-03    0.54E-07
   0      9    10.197    63.403    0.15E-03    0.11E-03    0.52E-07
   1      9    10.197    19.961    0.13E-03    0.17E-03    0.77E-07
   1      9    10.197    13.289    0.10E-03    0.15E-03    0.67E-07
 Optimization of the real space projectors (new method)

 maximal supplied QI-value         = 25.13
 optimisation between [QCUT,QGAM] = [ 10.05, 20.36] = [ 28.30,116.06] Ry 
 Optimized for a Real-space Cutoff    1.30 Angstroem

   l    n(q)    QCUT    max X(q) W(low)/X(q) W(high)/X(q)  e(spline) 
   0      8    10.053   115.676    0.49E-03    0.72E-03    0.18E-06
   0      8    10.053    87.132    0.49E-03    0.71E-03    0.18E-06
   1      7    10.053     4.429    0.32E-03    0.31E-03    0.18E-06
   1      7    10.053     2.733    0.23E-03    0.19E-03    0.20E-06
  PAW_PBE Pt 04Feb2005                  :
 energy of atom  1       EATOM= -729.1176
 kinetic energy error for atom=    0.0056 (will be added to EATOM!!)
  PAW_PBE C 08Apr2002                   :
 energy of atom  2       EATOM= -147.1560
 kinetic energy error for atom=    0.0288 (will be added to EATOM!!)
 
 
 POSCAR: Pt  C                                   
  positions in cartesian coordinates
  No initial velocities read in
 exchange correlation table for  LEXCH =        8
   RHO(1)=    0.500       N(1)  =     2000
   RHO(2)=  100.500       N(2)  =     4000

 VTST: version 3.1, (03/28/14)

 CHAIN: initializing optimizer
 
 OPT: Using VASP Dynamics algorithm
 CHAIN: Read ICHAIN            0
 
 POSCAR: Pt  C                                   
  positions in cartesian coordinates
  No initial velocities read in
 


--------------------------------------------------------------------------------------------------------


 ion  position               nearest neighbor table
   1  0.000  0.000  0.343-  12 2.81  16 2.81  10 2.81   6 2.81   7 2.81   8 2.81   2 2.81   3 2.81
                             4 2.81
   2  0.333  0.000  0.343-  10 2.81  11 2.81  17 2.81   3 2.81   9 2.81   1 2.81   4 2.81   5 2.81
                             8 2.81
   3  0.667  0.000  0.343-  11 2.81  18 2.81  12 2.81   2 2.81   5 2.81   9 2.81   1 2.81   6 2.81
                             7 2.81
   4  0.000  0.333  0.343-  10 2.81  13 2.81  15 2.81   7 2.81   9 2.81   2 2.81   5 2.81   6 2.81
                             1 2.81
   5  0.333  0.333  0.343-  14 2.81  13 2.81  11 2.81   8 2.81   6 2.81   3 2.81   7 2.81   2 2.81
                             4 2.81
   6  0.667  0.333  0.343-  12 2.81  14 2.81  15 2.81   5 2.81   8 2.81   9 2.81   1 2.81   3 2.81
                             4 2.81
   7  0.000  0.667  0.343-  13 2.81  18 2.81  16 2.81   4 2.81   5 2.81   9 2.81   1 2.81   3 2.81
                             8 2.81
   8  0.333  0.667  0.343-  14 2.81  16 2.81  17 2.81   5 2.81   6 2.81   9 2.81   2 2.81   7 2.81
                             1 2.81
   9  0.667  0.667  0.343-  15 2.81  17 2.81  18 2.81   8 2.81   6 2.81   4 2.81   2 2.81   3 2.81
                             7 2.81
  10  0.111  0.111  0.448-   2 2.81   4 2.81   1 2.81  11 2.81  13 2.81  15 2.81  17 2.81  16 2.81
                            12 2.81  20 2.81  19 2.81  26 2.81
  11  0.444  0.111  0.448-  27 2.78  20 2.80   5 2.81   2 2.81   3 2.81  14 2.81  10 2.81  13 2.81
                            18 2.81  12 2.81  17 2.81  21 2.81
  12  0.778  0.111  0.448-  25 2.78  19 2.80   1 2.81   6 2.81   3 2.81  15 2.81  14 2.81  16 2.81
                            18 2.81  10 2.81  11 2.81  21 2.81
  13  0.111  0.444  0.448-  22 2.78  20 2.80   7 2.81   4 2.81   5 2.81  14 2.81  10 2.81  11 2.81
                            18 2.81  15 2.81  16 2.81  23 2.81
  14  0.444  0.444  0.448-  24 2.80  23 2.80  21 2.80   5 2.81   8 2.81   6 2.81  13 2.81  11 2.81
                            16 2.81  12 2.81  17 2.81  15 2.81
  15  0.778  0.444  0.448-  22 2.78  19 2.80   9 2.81   4 2.81   6 2.81  12 2.81  10 2.81  17 2.81
                            18 2.81  13 2.81  14 2.81  24 2.81
  16  0.111  0.778  0.448-  25 2.78  26 2.80   1 2.81   8 2.81   7 2.81  17 2.81  14 2.81  12 2.81
                            18 2.81  13 2.81  10 2.81  23 2.81
  17  0.444  0.778  0.448-  27 2.78  26 2.80   9 2.81   2 2.81   8 2.81  16 2.81  10 2.81  11 2.81
                            18 2.81  14 2.81  15 2.81  24 2.81
  18  0.778  0.778  0.448-  25 2.78  27 2.78  22 2.78   7 2.81   3 2.81   9 2.81  15 2.81  16 2.81
                            17 2.81  11 2.81  12 2.81  13 2.81
  19  0.887  0.223  0.552-  21 2.80  24 2.80  12 2.80  15 2.80  31 2.80  22 2.81  25 2.81  28 2.81
                            10 2.81  33 2.83  26 2.83  20 2.83
  20  0.223  0.223  0.552-  21 2.79  23 2.80  11 2.80  13 2.80  31 2.81  27 2.81  22 2.81  29 2.81
                            10 2.81  32 2.83  26 2.83  19 2.83
  21  0.555  0.224  0.553-  23 2.79  24 2.79  20 2.79  19 2.80  14 2.80  30 2.81  11 2.81  12 2.81
                            25 2.82  27 2.82  33 2.94  32 2.94
  22  0.889  0.555  0.551-  15 2.78  13 2.78  18 2.78  34 2.80  36 2.80  19 2.81  20 2.81  25 2.81
                            27 2.81  23 2.82  24 2.82  31 2.82
  23  0.224  0.555  0.553-  24 2.79  21 2.79  20 2.80  26 2.80  14 2.80  34 2.81  13 2.81  16 2.81
                            25 2.82  22 2.82  35 2.94  32 2.94
  24  0.555  0.555  0.552-  23 2.79  21 2.79  26 2.80  19 2.80  14 2.80  36 2.81  15 2.81  17 2.81
                            27 2.82  22 2.82  35 2.94  33 2.94
  25  0.889  0.889  0.551-  18 2.78  16 2.78  12 2.78  30 2.80  34 2.80  19 2.81  26 2.81  22 2.81
                            27 2.81  28 2.82  23 2.82  21 2.82
  26  0.223  0.887  0.552-  24 2.80  23 2.80  16 2.80  17 2.80  27 2.81  29 2.81  25 2.81  28 2.81
                            10 2.81  35 2.83  19 2.83  20 2.83
  27  0.555  0.889  0.551-  17 2.78  11 2.78  18 2.78  30 2.80  36 2.80  26 2.81  20 2.81  25 2.81
                            22 2.81  24 2.82  21 2.82  29 2.82
  28  0.999  0.999  0.657-  35 2.69  33 2.70  30 2.80  34 2.80  26 2.81  19 2.81  25 2.82  31 2.82
                            29 2.82
  29  0.334  0.999  0.657-  35 2.69  32 2.70  30 2.80  36 2.80  26 2.81  20 2.81  27 2.82  31 2.82
                            28 2.82
  30  0.669  0.995  0.656-  36 2.75  34 2.75  28 2.80  29 2.80  27 2.80  25 2.80  21 2.81  32 2.84
                            33 2.84
  31  1.000  0.334  0.656-  33 2.69  32 2.69  34 2.80  36 2.80  19 2.80  20 2.81  29 2.82  22 2.82
                            28 2.82
  32  0.324  0.324  0.663-  37 1.90  31 2.69  29 2.70  20 2.83  30 2.84  34 2.84  21 2.94  23 2.94
                            33 3.04  35 3.04
  33  0.685  0.324  0.663-  37 1.90  31 2.69  28 2.70  19 2.83  36 2.84  30 2.84  21 2.94  24 2.94
                            35 3.04  32 3.04
  34  0.996  0.668  0.656-  36 2.75  30 2.75  28 2.80  22 2.80  31 2.80  25 2.80  23 2.81  32 2.84
                            35 2.84
  35  0.324  0.685  0.662-  37 1.90  29 2.69  28 2.69  26 2.83  36 2.84  34 2.84  23 2.94  24 2.94
                            33 3.04  32 3.04
  36  0.669  0.668  0.656-  34 2.75  30 2.75  29 2.80  22 2.80  31 2.80  27 2.80  24 2.81  33 2.84
                            35 2.84
  37  0.444  0.444  0.696-  32 1.90  33 1.90  35 1.90
 
  LATTYP: Found a hexagonal cell.
 ALAT       =     8.4216417639
 C/A-ratio  =     2.5976219743
  
  Lattice vectors:
  
 A1 = (   4.2108208820,  -7.2933557091,   0.0000000000)
 A2 = (  -8.4216417639,   0.0000000000,   0.0000000000)
 A3 = (   0.0000000000,   0.0000000000, -21.8762417060)


Analysis of symmetry for initial positions (statically):
=====================================================================
 Subroutine PRICEL returns:
 Original cell was already a primitive cell.
 

 Routine SETGRP: Setting up the symmetry group for a 
 hexagonal supercell.


 Subroutine GETGRP returns: Found  1 space group operations
 (whereof  1 operations were pure point group operations)
 out of a pool of 24 trial point group operations.


The static configuration has the point symmetry C_1 .


Analysis of symmetry for dynamics (positions and initial velocities):
=====================================================================
 Subroutine PRICEL returns:
 Original cell was already a primitive cell.
 

 Routine SETGRP: Setting up the symmetry group for a 
 hexagonal supercell.


 Subroutine GETGRP returns: Found  1 space group operations
 (whereof  1 operations were pure point group operations)
 out of a pool of 24 trial point group operations.


The dynamic configuration has the point symmetry C_1 .


Analysis of constrained symmetry for selective dynamics:
=====================================================================
 Subroutine PRICEL returns:
 Original cell was already a primitive cell.
 

 Routine SETGRP: Setting up the symmetry group for a 
 hexagonal supercell.


 Subroutine GETGRP returns: Found  1 space group operations
 (whereof  1 operations were pure point group operations)
 out of a pool of 24 trial point group operations.


The constrained configuration has the point symmetry C_1 .
 
 
 KPOINTS: KPOINTS created by Atomic Simulation Env

Automatic generation of k-mesh.
Space group operators:
 irot       det(A)        alpha          n_x          n_y          n_z        tau_x        tau_y        tau_z
    1     1.000000     0.000000     1.000000     0.000000     0.000000     0.000000     0.000000     0.000000
 
 Subroutine IBZKPT returns following result:
 ===========================================
 
 Found     54 irreducible k-points:
 
 Following reciprocal coordinates:
            Coordinates               Weight
  0.083333  0.083333  0.000000     16.000000
  0.000000  0.083333  0.000000     16.000000
 -0.083333  0.000000  0.000000     16.000000
  0.250000  0.083333  0.000000     16.000000
  0.166667  0.250000  0.000000     16.000000
 -0.083333  0.166667  0.000000     16.000000
  0.166667 -0.083333  0.000000     16.000000
 -0.083333 -0.250000  0.000000     16.000000
 -0.250000 -0.166667  0.000000     16.000000
  0.416667  0.083333  0.000000     16.000000
  0.333333  0.416667  0.000000     16.000000
 -0.083333  0.333333  0.000000     16.000000
  0.333333 -0.083333  0.000000     16.000000
 -0.083333 -0.416667  0.000000     16.000000
 -0.416667 -0.333333  0.000000     16.000000
 -0.416667  0.083333  0.000000     16.000000
  0.500000 -0.416667  0.000000     16.000000
 -0.083333  0.500000  0.000000     16.000000
  0.500000 -0.083333  0.000000     16.000000
 -0.083333  0.416667  0.000000     16.000000
  0.416667  0.500000  0.000000     16.000000
 -0.250000  0.083333  0.000000     16.000000
 -0.333333 -0.250000  0.000000     16.000000
 -0.083333 -0.333333  0.000000     16.000000
 -0.333333 -0.083333  0.000000     16.000000
 -0.083333  0.250000  0.000000     16.000000
  0.250000  0.333333  0.000000     16.000000
 -0.083333  0.083333  0.000000     16.000000
 -0.166667 -0.083333  0.000000     16.000000
 -0.083333 -0.166667  0.000000     16.000000
  0.250000  0.250000  0.000000     16.000000
  0.000000  0.250000  0.000000     16.000000
 -0.250000  0.000000  0.000000     16.000000
  0.416667  0.250000  0.000000     16.000000
  0.166667  0.416667  0.000000     16.000000
 -0.250000  0.166667  0.000000     16.000000
  0.166667 -0.250000  0.000000     16.000000
 -0.250000 -0.416667  0.000000     16.000000
 -0.416667 -0.166667  0.000000     16.000000
 -0.416667  0.250000  0.000000     16.000000
  0.333333 -0.416667  0.000000     16.000000
 -0.250000  0.333333  0.000000     16.000000
  0.333333 -0.250000  0.000000     16.000000
 -0.250000  0.416667  0.000000     16.000000
  0.416667 -0.333333  0.000000     16.000000
 -0.250000  0.250000  0.000000     16.000000
  0.500000 -0.250000  0.000000     16.000000
 -0.250000  0.500000  0.000000     16.000000
  0.416667  0.416667  0.000000     16.000000
  0.000000  0.416667  0.000000     16.000000
 -0.416667 -0.000000  0.000000     16.000000
 -0.416667  0.416667  0.000000     16.000000
  0.166667 -0.416667  0.000000     16.000000
 -0.416667  0.166667  0.000000     16.000000
 
 Following cartesian coordinates:
            Coordinates               Weight
  0.009895  0.005713  0.000000     16.000000
  0.000000  0.011426  0.000000     16.000000
 -0.009895  0.005713  0.000000     16.000000
  0.029685 -0.005713  0.000000     16.000000
  0.019790  0.022852  0.000000     16.000000
 -0.009895  0.028565  0.000000     16.000000
  0.019790 -0.022852  0.000000     16.000000
 -0.009895 -0.028565  0.000000     16.000000
 -0.029685 -0.005713  0.000000     16.000000
  0.049476 -0.017139  0.000000     16.000000
  0.039581  0.034278  0.000000     16.000000
 -0.009895  0.051417  0.000000     16.000000
  0.039581 -0.034278  0.000000     16.000000
 -0.009895 -0.051417  0.000000     16.000000
 -0.049476 -0.017139  0.000000     16.000000
 -0.049476  0.039991  0.000000     16.000000
  0.059371 -0.091407  0.000000     16.000000
 -0.009895  0.074269  0.000000     16.000000
  0.059371 -0.045704  0.000000     16.000000
 -0.009895  0.062843  0.000000     16.000000
  0.049476  0.039991  0.000000     16.000000
 -0.029685  0.028565  0.000000     16.000000
 -0.039581 -0.011426  0.000000     16.000000
 -0.009895 -0.039991  0.000000     16.000000
 -0.039581  0.011426  0.000000     16.000000
 -0.009895  0.039991  0.000000     16.000000
  0.029685  0.028565  0.000000     16.000000
 -0.009895  0.017139  0.000000     16.000000
 -0.019790  0.000000  0.000000     16.000000
 -0.009895 -0.017139  0.000000     16.000000
  0.029685  0.017139  0.000000     16.000000
  0.000000  0.034278  0.000000     16.000000
 -0.029685  0.017139  0.000000     16.000000
  0.049476  0.005713  0.000000     16.000000
  0.019790  0.045704  0.000000     16.000000
 -0.029685  0.039991  0.000000     16.000000
  0.019790 -0.045704  0.000000     16.000000
 -0.029685 -0.039991  0.000000     16.000000
 -0.049476  0.005713  0.000000     16.000000
 -0.049476  0.062843  0.000000     16.000000
  0.039581 -0.079981  0.000000     16.000000
 -0.029685  0.062843  0.000000     16.000000
  0.039581 -0.057130  0.000000     16.000000
 -0.029685  0.074269  0.000000     16.000000
  0.049476 -0.074269  0.000000     16.000000
 -0.029685  0.051417  0.000000     16.000000
  0.059371 -0.068556  0.000000     16.000000
 -0.029685  0.085694  0.000000     16.000000
  0.049476  0.028565  0.000000     16.000000
  0.000000  0.057130  0.000000     16.000000
 -0.049476  0.028565  0.000000     16.000000
 -0.049476  0.085694  0.000000     16.000000
  0.019790 -0.068556  0.000000     16.000000
 -0.049476  0.051417  0.000000     16.000000
 


--------------------------------------------------------------------------------------------------------




 Dimension of arrays:
   k-points           NKPTS =     54   k-points in BZ     NKDIM =     54   number of bands    NBANDS=    220
   number of dos      NEDOS =    301   number of ions     NIONS =     37
   non local maximal  LDIM  =      6   non local SUM 2l+1 LMDIM =     18
   total plane-waves  NPLWV = 190512
   max r-space proj   IRMAX =   2088   max aug-charges    IRDMAX=   8786
   dimension x,y,z NGX =    42 NGY =   42 NGZ =  108
   dimension x,y,z NGXF=    84 NGYF=   84 NGZF=  216
   support grid    NGXF=    84 NGYF=   84 NGZF=  216
   ions per type =              36   1
 NGX,Y,Z   is equivalent  to a cutoff of   8.29,  8.29,  8.21 a.u.
 NGXF,Y,Z  is equivalent  to a cutoff of  16.58, 16.58, 16.41 a.u.


 I would recommend the setting:
   dimension x,y,z NGX =    41 NGY =   41 NGZ =  107
 SYSTEM =  unknown system                          
 POSCAR =  Pt  C                                   

 Startparameter for this run:
   NWRITE =      2    write-flag & timer
   PREC   = normal    normal or accurate (medium, high low for compatibility)
   ISTART =      0    job   : 0-new  1-cont  2-samecut
   ICHARG =      2    charge: 1-file 2-atom 10-const
   ISPIN  =      1    spin polarized calculation?
   LNONCOLLINEAR =      F non collinear calculations
   LSORBIT =      F    spin-orbit coupling
   INIWAV =      1    electr: 0-lowe 1-rand  2-diag
   LASPH  =      F    aspherical Exc in radial PAW
   METAGGA=      F    non-selfconsistent MetaGGA calc.

 Electronic Relaxation 1
   ENCUT  =  400.0 eV  29.40 Ry    5.42 a.u.  13.73 13.73 35.67*2*pi/ulx,y,z
   ENINI  =  400.0     initial cutoff
   ENAUG  =  644.9 eV  augmentation charge cutoff
   NELM   =     60;   NELMIN=  4; NELMDL= -4     # of ELM steps 
   EDIFF  = 0.1E-05   stopping-criterion for ELM
   LREAL  =      T    real-space projection
   NLSPLINE    = F    spline interpolate recip. space projectors
   LCOMPAT=      F    compatible to vasp.4.4
   GGA_COMPAT  = T    GGA compatible to vasp.4.4-vasp.4.6
   LMAXPAW     = -100 max onsite density
   LMAXMIX     =    2 max onsite mixed and CHGCAR
   VOSKOWN=      0    Vosko Wilk Nusair interpolation
   ROPT   =   -0.00050  -0.00050
 Ionic relaxation
   EDIFFG = 0.1E-04   stopping-criterion for IOM
   NSW    =      0    number of steps for IOM
   NBLOCK =      1;   KBLOCK =      1    inner block; outer block 
   IBRION =     -1    ionic relax: 0-MD 1-quasi-New 2-CG
   NFREE  =      0    steps in history (QN), initial steepest desc. (CG)
   ISIF   =      2    stress and relaxation
   IWAVPR =     10    prediction:  0-non 1-charg 2-wave 3-comb
   ISYM   =      2    0-nonsym 1-usesym 2-fastsym
   LCORR  =      T    Harris-Foulkes like correction to forces

   POTIM  = 0.5000    time-step for ionic-motion
   TEIN   =    0.0    initial temperature
   TEBEG  =    0.0;   TEEND  =   0.0 temperature during run
   SMASS  =  -3.00    Nose mass-parameter (am)
   estimated Nose-frequenzy (Omega)   =  0.10E-29 period in steps =****** mass=  -0.162E-26a.u.
   SCALEE = 1.0000    scale energy and forces
   NPACO  =    256;   APACO  = 16.0  distance and # of slots for P.C.
   PSTRESS=    0.0 pullay stress

  Mass of Ions in am
   POMASS = 195.08 12.01
  Ionic Valenz
   ZVAL   =  10.00  4.00
  Atomic Wigner-Seitz radii
   RWIGS  =  -1.00 -1.00
  virtual crystal weights 
   VCA    =   1.00  1.00
   NELECT =     364.0000    total number of electrons
   NUPDOWN=      -1.0000    fix difference up-down

 DOS related values:
   EMIN   =  10.00;   EMAX   =-10.00  energy-range for DOS
   EFERMI =   0.00
   ISMEAR =    -1;   SIGMA  =   0.10  broadening in eV -4-tet -1-fermi 0-gaus

 Electronic relaxation 2 (details)
   IALGO  =     68    algorithm
   LDIAG  =      T    sub-space diagonalisation (order eigenvalues)
   LSUBROT=      F    optimize rotation matrix (better conditioning)
   TURBO    =      0    0=normal 1=particle mesh
   IRESTART =      0    0=no restart 2=restart with 2 vectors
   NREBOOT  =      0    no. of reboots
   NMIN     =      0    reboot dimension
   EREF     =   0.00    reference energy to select bands
   IMIX   =      4    mixing-type and parameters
     AMIX     =   0.40;   BMIX     =  1.00
     AMIX_MAG =   1.60;   BMIX_MAG =  1.00
     AMIN     =   0.10
     WC   =   100.;   INIMIX=   1;  MIXPRE=   1;  MAXMIX= -45

 Intra band minimization:
   WEIMIN = 0.0000     energy-eigenvalue tresh-hold
   EBREAK =  0.11E-08  absolut break condition
   DEPER  =   0.30     relativ break condition  

   TIME   =   0.40     timestep for ELM

  volume/ion in A,a.u.               =      36.32       245.07
  Fermi-wavevector in a.u.,A,eV,Ry     =   1.059277  2.001744 15.266668  1.122068
  Thomas-Fermi vector in A             =   2.194617
 
 Write flags
   LWAVE  =      F    write WAVECAR
   LCHARG =      F    write CHGCAR
   LVTOT  =      F    write LOCPOT, total local potential
   LVHAR  =      F    write LOCPOT, Hartree potential only
   LELF   =      F    write electronic localiz. function (ELF)
   LORBIT =      0    0 simple, 1 ext, 2 COOP (PROOUT)


 Dipole corrections
   LMONO  =      F    monopole corrections only (constant potential shift)
   LDIPOL =      F    correct potential (dipole corrections)
   IDIPOL =      0    1-x, 2-y, 3-z, 4-all directions 
   EPSILON=  1.0000000 bulk dielectric constant

 Exchange correlation treatment:
   GGA     =    PE    GGA type
   LEXCH   =     8    internal setting for exchange type
   VOSKOWN=      0    Vosko Wilk Nusair interpolation
   LHFCALC =     F    Hartree Fock is set to
   LHFONE  =     F    Hartree Fock one center treatment
   AEXX    =    0.0000 exact exchange contribution

 Linear response parameters
   LEPSILON=     F    determine dielectric tensor
   LRPA    =     F    only Hartree local field effects (RPA)
   LNABLA  =     F    use nabla operator in PAW spheres
   LVEL    =     F    velocity operator in full k-point grid
   LINTERFAST=   F  fast interpolation
   KINTER  =     0    interpolate to denser k-point grid
   CSHIFT  =0.1000    complex shift for real part using Kramers Kronig
   OMEGAMAX=  -1.0    maximum frequency
   DEG_THRESHOLD= 0.2000000E-02 threshold for treating states as degnerate
   RTIME   =    0.100 relaxation time in fs

 Orbital magnetization related:
   ORBITALMAG=     F  switch on orbital magnetization
   LCHIMAG   =     F  perturbation theory with respect to B field
   DQ        =  0.001000  dq finite difference perturbation B field



--------------------------------------------------------------------------------------------------------


 Static calculation
 charge density and potential will be updated during run
 non-spin polarized calculation
 RMM-DIIS sequential band-by-band and
  variant of blocked Davidson during initial phase
 perform sub-space diagonalisation
    before iterative eigenvector-optimisation
 modified Broyden-mixing scheme, WC =      100.0
 initial mixing is a Kerker type mixing with AMIX =  0.4000 and BMIX =      1.0000
 Hartree-type preconditioning will be used
 using additional bands           38
 real space projection scheme for non local part
 use partial core corrections
 calculate Harris-corrections to forces 
   (improved forces if not selfconsistent)
 use gradient corrections 
 use of overlap-Matrix (Vanderbilt PP)
 Fermi-smearing in eV        SIGMA  =   0.10


--------------------------------------------------------------------------------------------------------


  energy-cutoff  :      400.00
  volume of cell :     1343.68
      direct lattice vectors                 reciprocal lattice vectors
     8.421641764  0.000000000  0.000000000     0.118741693 -0.068555548  0.000000000
     4.210820882  7.293355709  0.000000000     0.000000000  0.137111097  0.000000000
     0.000000000  0.000000000 21.876241706     0.000000000  0.000000000  0.045711691

  length of vectors
     8.421641764  8.421641764 21.876241706     0.137111097  0.137111097  0.045711691


 
 k-points in units of 2pi/SCALE and weight: KPOINTS created by Atomic Simulation Env
   0.00989514  0.00571296  0.00000000       0.019
   0.00000000  0.01142592  0.00000000       0.019
  -0.00989514  0.00571296  0.00000000       0.019
   0.02968542 -0.00571296  0.00000000       0.019
   0.01979028  0.02285185  0.00000000       0.019
  -0.00989514  0.02856481  0.00000000       0.019
   0.01979028 -0.02285185  0.00000000       0.019
  -0.00989514 -0.02856481  0.00000000       0.019
  -0.02968542 -0.00571296  0.00000000       0.019
   0.04947571 -0.01713889  0.00000000       0.019
   0.03958056  0.03427777  0.00000000       0.019
  -0.00989514  0.05141666  0.00000000       0.019
   0.03958056 -0.03427777  0.00000000       0.019
  -0.00989514 -0.05141666  0.00000000       0.019
  -0.04947571 -0.01713889  0.00000000       0.019
  -0.04947571  0.03999074  0.00000000       0.019
   0.05937085 -0.09140740  0.00000000       0.019
  -0.00989514  0.07426851  0.00000000       0.019
   0.05937085 -0.04570370  0.00000000       0.019
  -0.00989514  0.06284259  0.00000000       0.019
   0.04947571  0.03999074  0.00000000       0.019
  -0.02968542  0.02856481  0.00000000       0.019
  -0.03958056 -0.01142592  0.00000000       0.019
  -0.00989514 -0.03999074  0.00000000       0.019
  -0.03958056  0.01142592  0.00000000       0.019
  -0.00989514  0.03999074  0.00000000       0.019
   0.02968542  0.02856481  0.00000000       0.019
  -0.00989514  0.01713889  0.00000000       0.019
  -0.01979028  0.00000000  0.00000000       0.019
  -0.00989514 -0.01713889  0.00000000       0.019
   0.02968542  0.01713889  0.00000000       0.019
   0.00000000  0.03427777  0.00000000       0.019
  -0.02968542  0.01713889  0.00000000       0.019
   0.04947571  0.00571296  0.00000000       0.019
   0.01979028  0.04570370  0.00000000       0.019
  -0.02968542  0.03999074  0.00000000       0.019
   0.01979028 -0.04570370  0.00000000       0.019
  -0.02968542 -0.03999074  0.00000000       0.019
  -0.04947571  0.00571296  0.00000000       0.019
  -0.04947571  0.06284259  0.00000000       0.019
   0.03958056 -0.07998147  0.00000000       0.019
  -0.02968542  0.06284259  0.00000000       0.019
   0.03958056 -0.05712962  0.00000000       0.019
  -0.02968542  0.07426851  0.00000000       0.019
   0.04947571 -0.07426851  0.00000000       0.019
  -0.02968542  0.05141666  0.00000000       0.019
   0.05937085 -0.06855555  0.00000000       0.019
  -0.02968542  0.08569444  0.00000000       0.019
   0.04947571  0.02856481  0.00000000       0.019
   0.00000000  0.05712962  0.00000000       0.019
  -0.04947571  0.02856481  0.00000000       0.019
  -0.04947571  0.08569444  0.00000000       0.019
   0.01979028 -0.06855555  0.00000000       0.019
  -0.04947571  0.05141666  0.00000000       0.019
 
 k-points in reciprocal lattice and weights: KPOINTS created by Atomic Simulation Env
   0.08333333  0.08333333  0.00000000       0.019
   0.00000000  0.08333333  0.00000000       0.019
  -0.08333333  0.00000000  0.00000000       0.019
   0.25000000  0.08333333  0.00000000       0.019
   0.16666667  0.25000000  0.00000000       0.019
  -0.08333333  0.16666667  0.00000000       0.019
   0.16666667 -0.08333333  0.00000000       0.019
  -0.08333333 -0.25000000  0.00000000       0.019
  -0.25000000 -0.16666667  0.00000000       0.019
   0.41666667  0.08333333  0.00000000       0.019
   0.33333333  0.41666667  0.00000000       0.019
  -0.08333333  0.33333333  0.00000000       0.019
   0.33333333 -0.08333333  0.00000000       0.019
  -0.08333333 -0.41666667  0.00000000       0.019
  -0.41666667 -0.33333333  0.00000000       0.019
  -0.41666667  0.08333333  0.00000000       0.019
   0.50000000 -0.41666667  0.00000000       0.019
  -0.08333333  0.50000000  0.00000000       0.019
   0.50000000 -0.08333333  0.00000000       0.019
  -0.08333333  0.41666667  0.00000000       0.019
   0.41666667  0.50000000  0.00000000       0.019
  -0.25000000  0.08333333  0.00000000       0.019
  -0.33333333 -0.25000000  0.00000000       0.019
  -0.08333333 -0.33333333  0.00000000       0.019
  -0.33333333 -0.08333333  0.00000000       0.019
  -0.08333333  0.25000000  0.00000000       0.019
   0.25000000  0.33333333  0.00000000       0.019
  -0.08333333  0.08333333  0.00000000       0.019
  -0.16666667 -0.08333333  0.00000000       0.019
  -0.08333333 -0.16666667  0.00000000       0.019
   0.25000000  0.25000000  0.00000000       0.019
   0.00000000  0.25000000  0.00000000       0.019
  -0.25000000  0.00000000  0.00000000       0.019
   0.41666667  0.25000000  0.00000000       0.019
   0.16666667  0.41666667  0.00000000       0.019
  -0.25000000  0.16666667  0.00000000       0.019
   0.16666667 -0.25000000  0.00000000       0.019
  -0.25000000 -0.41666667  0.00000000       0.019
  -0.41666667 -0.16666667  0.00000000       0.019
  -0.41666667  0.25000000  0.00000000       0.019
   0.33333333 -0.41666667  0.00000000       0.019
  -0.25000000  0.33333333  0.00000000       0.019
   0.33333333 -0.25000000  0.00000000       0.019
  -0.25000000  0.41666667  0.00000000       0.019
   0.41666667 -0.33333333  0.00000000       0.019
  -0.25000000  0.25000000  0.00000000       0.019
   0.50000000 -0.25000000  0.00000000       0.019
  -0.25000000  0.50000000  0.00000000       0.019
   0.41666667  0.41666667  0.00000000       0.019
   0.00000000  0.41666667  0.00000000       0.019
  -0.41666667 -0.00000000  0.00000000       0.019
  -0.41666667  0.41666667  0.00000000       0.019
   0.16666667 -0.41666667  0.00000000       0.019
  -0.41666667  0.16666667  0.00000000       0.019
 
 position of ions in fractional coordinates (direct lattice) 
   0.00000000  0.00000000  0.34283768
   0.33333333  0.00000000  0.34283768
   0.66666667  0.00000000  0.34283768
   0.00000000  0.33333333  0.34283768
   0.33333333  0.33333333  0.34283768
   0.66666667  0.33333333  0.34283768
   0.00000000  0.66666667  0.34283768
   0.33333333  0.66666667  0.34283768
   0.66666667  0.66666667  0.34283768
   0.11111111  0.11111111  0.44761256
   0.44444444  0.11111111  0.44761256
   0.77777778  0.11111111  0.44761256
   0.11111111  0.44444444  0.44761256
   0.44444444  0.44444444  0.44761256
   0.77777778  0.44444444  0.44761256
   0.11111111  0.77777778  0.44761256
   0.44444444  0.77777778  0.44761256
   0.77777778  0.77777778  0.44761256
   0.88693345  0.22294440  0.55210425
   0.22317345  0.22295857  0.55213518
   0.55474406  0.22353143  0.55250140
   0.88897493  0.55506638  0.55083427
   0.22369626  0.55458064  0.55250635
   0.55470635  0.55460394  0.55247948
   0.88895682  0.88874008  0.55085864
   0.22310987  0.88682386  0.55210305
   0.55526413  0.88876244  0.55083623
   0.99932871  0.99900635  0.65653331
   0.33431374  0.99901037  0.65651988
   0.66877136  0.99515000  0.65583619
   0.99956608  0.33368021  0.65647233
   0.32406910  0.32365386  0.66261401
   0.68502710  0.32379095  0.66250248
   0.99555018  0.66834141  0.65582304
   0.32404795  0.68476795  0.66247766
   0.66891686  0.66844631  0.65581714
   0.44437422  0.44413056  0.69570069
 
 position of ions in cartesian coordinates  (Angst):
   0.00000000  0.00000000  7.50000000
   2.80721392  0.00000000  7.50000000
   5.61442784  0.00000000  7.50000000
   1.40360696  2.43111857  7.50000000
   4.21082088  2.43111857  7.50000000
   7.01803480  2.43111857  7.50000000
   2.80721392  4.86223714  7.50000000
   5.61442784  4.86223714  7.50000000
   8.42164176  4.86223714  7.50000000
   1.40360696  0.81037286  9.79208057
   4.21082088  0.81037286  9.79208057
   7.01803480  0.81037286  9.79208057
   2.80721392  3.24149143  9.79208057
   5.61442784  3.24149143  9.79208057
   8.42164176  3.24149143  9.79208057
   4.21082088  5.67261000  9.79208057
   7.01803480  5.67261000  9.79208057
   9.82524872  5.67261000  9.79208057
   8.40821469  1.62601279 12.07796605
   2.81832549  1.62611617 12.07864275
   5.61310653  1.63029422 12.08665422
   9.82391353  4.04829657 12.05018358
   4.21912950  4.04475389 12.08676253
   7.00687604  4.04492385 12.08617472
  11.22880118  6.48189754 12.05071683
   5.61320787  6.46792187 12.07793980
   8.41865503  6.48206064 12.05022642
  12.62262519  7.28610868 14.36248128
   7.02212425  7.28613796 14.36218759
   9.82255120  7.25798290 14.34723102
   9.82305507  2.43364846 14.36114738
   4.09204231  2.36052275 14.49550418
   7.13247854  2.36152255 14.49306443
  11.19843294  4.87445162 14.34694330
   5.61245098  4.99425627 14.49252144
   8.44808582  4.87521669 14.34681431
   5.61251469  3.23920213 15.21931638
 


--------------------------------------------------------------------------------------------------------


 k-point  1 :   0.0833 0.0833 0.0000  plane waves:   24413
 k-point  2 :   0.0000 0.0833 0.0000  plane waves:   24413
 k-point  3 :  -0.0833 0.0000 0.0000  plane waves:   24413
 k-point  4 :   0.2500 0.0833 0.0000  plane waves:   24407
 k-point  5 :   0.1667 0.2500 0.0000  plane waves:   24407
 k-point  6 :  -0.0833 0.1667 0.0000  plane waves:   24407
 k-point  7 :   0.1667-0.0833 0.0000  plane waves:   24407
 k-point  8 :  -0.0833-0.2500 0.0000  plane waves:   24407
 k-point  9 :  -0.2500-0.1667 0.0000  plane waves:   24407
 k-point 10 :   0.4167 0.0833 0.0000  plane waves:   24416
 k-point 11 :   0.3333 0.4167 0.0000  plane waves:   24416
 k-point 12 :  -0.0833 0.3333 0.0000  plane waves:   24416
 k-point 13 :   0.3333-0.0833 0.0000  plane waves:   24416
 k-point 14 :  -0.0833-0.4167 0.0000  plane waves:   24416
 k-point 15 :  -0.4167-0.3333 0.0000  plane waves:   24416
 k-point 16 :  -0.4167 0.0833 0.0000  plane waves:   24418
 k-point 17 :   0.5000-0.4167 0.0000  plane waves:   24418
 k-point 18 :  -0.0833 0.5000 0.0000  plane waves:   24418
 k-point 19 :   0.5000-0.0833 0.0000  plane waves:   24418
 k-point 20 :  -0.0833 0.4167 0.0000  plane waves:   24418
 k-point 21 :   0.4167 0.5000 0.0000  plane waves:   24418
 k-point 22 :  -0.2500 0.0833 0.0000  plane waves:   24416
 k-point 23 :  -0.3333-0.2500 0.0000  plane waves:   24416
 k-point 24 :  -0.0833-0.3333 0.0000  plane waves:   24416
 k-point 25 :  -0.3333-0.0833 0.0000  plane waves:   24416
 k-point 26 :  -0.0833 0.2500 0.0000  plane waves:   24416
 k-point 27 :   0.2500 0.3333 0.0000  plane waves:   24416
 k-point 28 :  -0.0833 0.0833 0.0000  plane waves:   24411
 k-point 29 :  -0.1667-0.0833 0.0000  plane waves:   24411
 k-point 30 :  -0.0833-0.1667 0.0000  plane waves:   24411
 k-point 31 :   0.2500 0.2500 0.0000  plane waves:   24440
 k-point 32 :   0.0000 0.2500 0.0000  plane waves:   24440
 k-point 33 :  -0.2500 0.0000 0.0000  plane waves:   24440
 k-point 34 :   0.4167 0.2500 0.0000  plane waves:   24406
 k-point 35 :   0.1667 0.4167 0.0000  plane waves:   24406
 k-point 36 :  -0.2500 0.1667 0.0000  plane waves:   24406
 k-point 37 :   0.1667-0.2500 0.0000  plane waves:   24406
 k-point 38 :  -0.2500-0.4167 0.0000  plane waves:   24406
 k-point 39 :  -0.4167-0.1667 0.0000  plane waves:   24406
 k-point 40 :  -0.4167 0.2500 0.0000  plane waves:   24402
 k-point 41 :   0.3333-0.4167 0.0000  plane waves:   24402
 k-point 42 :  -0.2500 0.3333 0.0000  plane waves:   24402
 k-point 43 :   0.3333-0.2500 0.0000  plane waves:   24402
 k-point 44 :  -0.2500 0.4167 0.0000  plane waves:   24402
 k-point 45 :   0.4167-0.3333 0.0000  plane waves:   24402
 k-point 46 :  -0.2500 0.2500 0.0000  plane waves:   24390
 k-point 47 :   0.5000-0.2500 0.0000  plane waves:   24390
 k-point 48 :  -0.2500 0.5000 0.0000  plane waves:   24390
 k-point 49 :   0.4167 0.4167 0.0000  plane waves:   24430
 k-point 50 :   0.0000 0.4167 0.0000  plane waves:   24430
 k-point 51 :  -0.4167-0.0000 0.0000  plane waves:   24430
 k-point 52 :  -0.4167 0.4167 0.0000  plane waves:   24404
 k-point 53 :   0.1667-0.4167 0.0000  plane waves:   24404
 k-point 54 :  -0.4167 0.1667 0.0000  plane waves:   24404

 maximum and minimum number of plane-waves per node :      6146     6048

 maximum number of plane-waves:     24440
 maximum index in each direction: 
   IXMAX=   14   IYMAX=   14   IZMAX=   35
   IXMIN=  -14   IYMIN=  -14   IZMIN=  -35

 WARNING: aliasing errors must be expected set NGX to  58 to avoid them
 WARNING: aliasing errors must be expected set NGY to  58 to avoid them
 WARNING: aliasing errors must be expected set NGZ to 142 to avoid them
 aliasing errors are usually negligible using standard VASP settings
 and one can safely disregard these warnings

 real space projection operators:
  total allocation   :      10076.42 KBytes
  max/ min on nodes  :       2662.53       2402.78


 parallel 3D FFT for wavefunctions:
    minimum data exchange during FFTs selected (reduces bandwidth)
 parallel 3D FFT for charge:
    minimum data exchange during FFTs selected (reduces bandwidth)


 total amount of memory used by VASP on root node   285648. kBytes
========================================================================

   base      :      30000. kBytes
   nonlr-proj:       4569. kBytes
   fftplans  :       4497. kBytes
   grid      :       7117. kBytes
   one-center:        155. kBytes
   wavefun   :     239310. kBytes
 
     INWAV:  cpu time    0.0000: real time    0.0000
 Broyden mixing: mesh for mixing (old mesh)
   NGX = 27   NGY = 27   NGZ = 71
  (NGX  = 84   NGY  = 84   NGZ  =216)
  gives a total of  51759 points

 initial charge density was supplied:
 charge density of overlapping atoms calculated
 number of electron     364.0000000 magnetization 
 keeping initial charge density in first step


--------------------------------------------------------------------------------------------------------


 Maximum index for non-local projection operator          593
 Maximum index for augmentation-charges          869 (set IRDMAX)


--------------------------------------------------------------------------------------------------------


 First call to EWALD:  gamma=   0.161
 Maximum number of real-space cells 4x 4x 2
 Maximum number of reciprocal cells 2x 2x 5

 FEWALD executed in parallel
    FEWALD:  cpu time    0.0030: real time    0.0027


----------------------------------------- Iteration    1(   1)  ---------------------------------------


    POTLOK:  cpu time    0.9079: real time    0.9082
    SETDIJ:  cpu time    0.0590: real time    0.0589
     EDDAV:  cpu time  132.4649: real time  133.7751
       DOS:  cpu time    0.0030: real time    0.0026
    --------------------------------------------
      LOOP:  cpu time  133.4367: real time  134.7488

 eigenvalue-minimisations  : 23830
 total energy-change (2. order) : 0.2191567E+04  (-0.1440300E+05)
 number of electron     364.0000000 magnetization 
 augmentation part      364.0000000 magnetization 

 Free energy of the ion-electron system (eV)
  ---------------------------------------------------
  alpha Z        PSCENC =       932.59998000
  Ewald energy   TEWEN  =     93377.61939795
  -Hartree energ DENC   =   -121582.49226980
  -exchange      EXHF   =         0.00000000
  -V(xc)+E(xc)   XCENC  =       134.40306013
  PAW double counting   =     25168.96932179   -24151.34207152
  entropy T*S    EENTRO =        -0.56171220
  eigenvalues    EBANDS =      1917.21390590
  atomic energy  EATOM  =     26395.15748898
  Solvation  Ediel_sol  =         0.00000000
  ---------------------------------------------------
  free energy    TOTEN  =      2191.56710123 eV

  energy without entropy =     2192.12881342  energy(sigma->0) =     2191.84795732


--------------------------------------------------------------------------------------------------------




----------------------------------------- Iteration    1(   2)  ---------------------------------------


     EDDAV:  cpu time  171.1870: real time  174.4489
       DOS:  cpu time    0.0030: real time    0.0030
    --------------------------------------------
      LOOP:  cpu time  171.1910: real time  174.5311

 eigenvalue-minimisations  : 27890
 total energy-change (2. order) :-0.2263085E+04  (-0.2094799E+04)
 number of electron     364.0000000 magnetization 
 augmentation part      364.0000000 magnetization 

 Free energy of the ion-electron system (eV)
  ---------------------------------------------------
  alpha Z        PSCENC =       932.59998000
  Ewald energy   TEWEN  =     93377.61939795
  -Hartree energ DENC   =   -121582.49226980
  -exchange      EXHF   =         0.00000000
  -V(xc)+E(xc)   XCENC  =       134.40306013
  PAW double counting   =     25168.96932179   -24151.34207152
  entropy T*S    EENTRO =        -1.06692672
  eigenvalues    EBANDS =      -345.36606213
  atomic energy  EATOM  =     26395.15748898
  Solvation  Ediel_sol  =         0.00000000
  ---------------------------------------------------
  free energy    TOTEN  =       -71.51808133 eV

  energy without entropy =      -70.45115462  energy(sigma->0) =      -70.98461797


--------------------------------------------------------------------------------------------------------




----------------------------------------- Iteration    1(   3)  ---------------------------------------


     EDDAV:  cpu time  183.5631: real time  185.4716
       DOS:  cpu time    0.0030: real time    0.0034
    --------------------------------------------
      LOOP:  cpu time  183.5671: real time  185.5200

 eigenvalue-minimisations  : 28250
 total energy-change (2. order) :-0.1548540E+03  (-0.1395153E+03)
 number of electron     364.0000000 magnetization 
 augmentation part      364.0000000 magnetization 

 Free energy of the ion-electron system (eV)
  ---------------------------------------------------
  alpha Z        PSCENC =       932.59998000
  Ewald energy   TEWEN  =     93377.61939795
  -Hartree energ DENC   =   -121582.49226980
  -exchange      EXHF   =         0.00000000
  -V(xc)+E(xc)   XCENC  =       134.40306013
  PAW double counting   =     25168.96932179   -24151.34207152
  entropy T*S    EENTRO =        -1.84659396
  eigenvalues    EBANDS =      -499.44043833
  atomic energy  EATOM  =     26395.15748898
  Solvation  Ediel_sol  =         0.00000000
  ---------------------------------------------------
  free energy    TOTEN  =      -226.37212477 eV

  energy without entropy =     -224.52553081  energy(sigma->0) =     -225.44882779


--------------------------------------------------------------------------------------------------------




----------------------------------------- Iteration    1(   4)  ---------------------------------------


     EDDAV:  cpu time  178.4129: real time  179.5275
       DOS:  cpu time    0.0040: real time    0.0035
    CHARGE:  cpu time    2.0947: real time    2.0944
    MIXING:  cpu time    0.0030: real time    0.0027
    --------------------------------------------
      LOOP:  cpu time  180.5176: real time  181.6442

 eigenvalue-minimisations  : 30070
 total energy-change (2. order) :-0.6792343E+01  (-0.6545883E+01)
 number of electron     364.0000003 magnetization 
 augmentation part      104.5728695 magnetization 

 Broyden mixing:
  rms(total) = 0.65288E+01    rms(broyden)= 0.65288E+01
  rms(prec ) = 0.66296E+01
  weight for this iteration     100.00

 Free energy of the ion-electron system (eV)
  ---------------------------------------------------
  alpha Z        PSCENC =       932.59998000
  Ewald energy   TEWEN  =     93377.61939795
  -Hartree energ DENC   =   -121582.49226980
  -exchange      EXHF   =         0.00000000
  -V(xc)+E(xc)   XCENC  =       134.40306013
  PAW double counting   =     25168.96932179   -24151.34207152
  entropy T*S    EENTRO =        -1.90564426
  eigenvalues    EBANDS =      -506.17373133
  atomic energy  EATOM  =     26395.15748898
  Solvation  Ediel_sol  =         0.00000000
  ---------------------------------------------------
  free energy    TOTEN  =      -233.16446807 eV

  energy without entropy =     -231.25882381  energy(sigma->0) =     -232.21164594


--------------------------------------------------------------------------------------------------------




----------------------------------------- Iteration    1(   5)  ---------------------------------------


    POTLOK:  cpu time    0.4299: real time    0.6488
    SETDIJ:  cpu time    0.0580: real time    0.0572
    EDDIAG:  cpu time   12.4421: real time   12.4566
  RMM-DIIS:  cpu time   46.9349: real time   47.0219
    ORTHCH:  cpu time    3.8994: real time    3.9263
       DOS:  cpu time    0.0030: real time    0.0034
    CHARGE:  cpu time    1.9697: real time    1.9709
    MIXING:  cpu time    0.0030: real time    0.0030
    --------------------------------------------
      LOOP:  cpu time   65.7410: real time   66.1141

 eigenvalue-minimisations  : 25044
 total energy-change (2. order) : 0.9493932E+01  (-0.5006792E+01)
 number of electron     364.0000028 magnetization 
 augmentation part      111.1116518 magnetization 

 Broyden mixing:
  rms(total) = 0.42946E+01    rms(broyden)= 0.42945E+01
  rms(prec ) = 0.45514E+01
  weight for this iteration     100.00

 eigenvalues of (default mixing * dielectric matrix)
  average eigenvalue GAMMA=   1.3299
  1.3299

 Free energy of the ion-electron system (eV)
  ---------------------------------------------------
  alpha Z        PSCENC =       932.59998000
  Ewald energy   TEWEN  =     93377.61939795
  -Hartree energ DENC   =   -121162.20583714
  -exchange      EXHF   =         0.00000000
  -V(xc)+E(xc)   XCENC  =       125.22965270
  PAW double counting   =     27963.16582055   -26998.69525161
  entropy T*S    EENTRO =        -1.98977160
  eigenvalues    EBANDS =      -854.55201575
  atomic energy  EATOM  =     26395.15748898
  Solvation  Ediel_sol  =         0.00000000
  ---------------------------------------------------
  free energy    TOTEN  =      -223.67053593 eV

  energy without entropy =     -221.68076434  energy(sigma->0) =     -222.67565014


--------------------------------------------------------------------------------------------------------




----------------------------------------- Iteration    1(   6)  ---------------------------------------


    POTLOK:  cpu time    0.4639: real time    0.4646
    SETDIJ:  cpu time    0.0080: real time    0.0073
    EDDIAG:  cpu time   12.8001: real time   12.8436
  RMM-DIIS:  cpu time   46.8209: real time   47.0902
    ORTHCH:  cpu time    3.6354: real time    3.6994
       DOS:  cpu time    0.0030: real time    0.0030
    CHARGE:  cpu time    2.1467: real time    2.1458
    MIXING:  cpu time    0.0030: real time    0.0028
    --------------------------------------------
      LOOP:  cpu time   65.8820: real time   66.3518

 eigenvalue-minimisations  : 24983
 total energy-change (2. order) :-0.4167093E+02  (-0.7423460E+01)
 number of electron     363.9999966 magnetization 
 augmentation part      108.7901612 magnetization 

 Broyden mixing:
  rms(total) = 0.56569E+01    rms(broyden)= 0.56567E+01
  rms(prec ) = 0.69134E+01
  weight for this iteration     100.00

 eigenvalues of (default mixing * dielectric matrix)
  average eigenvalue GAMMA=   1.1197
  1.9521  0.2873

 Free energy of the ion-electron system (eV)
  ---------------------------------------------------
  alpha Z        PSCENC =       932.59998000
  Ewald energy   TEWEN  =     93377.61939795
  -Hartree energ DENC   =   -121458.12833095
  -exchange      EXHF   =         0.00000000
  -V(xc)+E(xc)   XCENC  =       122.38551195
  PAW double counting   =     29984.51070287   -29041.60787718
  entropy T*S    EENTRO =        -1.19135627
  eigenvalues    EBANDS =      -576.68698284
  atomic energy  EATOM  =     26395.15748898
  Solvation  Ediel_sol  =         0.00000000
  ---------------------------------------------------
  free energy    TOTEN  =      -265.34146550 eV

  energy without entropy =     -264.15010923  energy(sigma->0) =     -264.74578736


--------------------------------------------------------------------------------------------------------




----------------------------------------- Iteration    1(   7)  ---------------------------------------


    POTLOK:  cpu time    0.0650: real time    0.0648
    SETDIJ:  cpu time    0.0070: real time    0.0074
    EDDIAG:  cpu time   13.4480: real time   13.4464
  RMM-DIIS:  cpu time   46.2880: real time   46.6423
    ORTHCH:  cpu time    3.6554: real time    3.6915
       DOS:  cpu time    0.0040: real time    0.0033
    CHARGE:  cpu time    2.0637: real time    2.0637
    MIXING:  cpu time    0.0030: real time    0.0029
    --------------------------------------------
      LOOP:  cpu time   65.5350: real time   65.9657

 eigenvalue-minimisations  : 24384
 total energy-change (2. order) : 0.4212513E+02  (-0.3008158E+01)
 number of electron     363.9999998 magnetization 
 augmentation part      112.1265430 magnetization 

 Broyden mixing:
  rms(total) = 0.21397E+01    rms(broyden)= 0.21396E+01
  rms(prec ) = 0.27585E+01
  weight for this iteration     100.00

 eigenvalues of (default mixing * dielectric matrix)
  average eigenvalue GAMMA=   0.9639
  2.0718  0.5086  0.3113

 Free energy of the ion-electron system (eV)
  ---------------------------------------------------
  alpha Z        PSCENC =       932.59998000
  Ewald energy   TEWEN  =     93377.61939795
  -Hartree energ DENC   =   -121183.67342122
  -exchange      EXHF   =         0.00000000
  -V(xc)+E(xc)   XCENC  =       120.74070667
  PAW double counting   =     31571.91835950   -30650.49604537
  entropy T*S    EENTRO =        -1.71738167
  eigenvalues    EBANDS =      -785.36541889
  atomic energy  EATOM  =     26395.15748898
  Solvation  Ediel_sol  =         0.00000000
  ---------------------------------------------------
  free energy    TOTEN  =      -223.21633405 eV

  energy without entropy =     -221.49895238  energy(sigma->0) =     -222.35764321


--------------------------------------------------------------------------------------------------------




----------------------------------------- Iteration    1(   8)  ---------------------------------------


    POTLOK:  cpu time    0.5239: real time    0.5246
    SETDIJ:  cpu time    0.0080: real time    0.0072
    EDDIAG:  cpu time   13.1780: real time   13.2095
  RMM-DIIS:  cpu time   51.5452: real time   51.8228
    ORTHCH:  cpu time    3.8864: real time    3.8873
       DOS:  cpu time    0.0040: real time    0.0035
    CHARGE:  cpu time    2.7186: real time    2.7193
    MIXING:  cpu time    0.0040: real time    0.0038
    --------------------------------------------
      LOOP:  cpu time   71.8691: real time   72.2448

 eigenvalue-minimisations  : 25189
 total energy-change (2. order) :-0.1086144E+02  (-0.1578314E+01)
 number of electron     364.0000000 magnetization 
 augmentation part      112.0472604 magnetization 

 Broyden mixing:
  rms(total) = 0.35004E+01    rms(broyden)= 0.35003E+01
  rms(prec ) = 0.53282E+01
  weight for this iteration     100.00

 eigenvalues of (default mixing * dielectric matrix)
  average eigenvalue GAMMA=   0.8833
  2.2249  0.8500  0.2982  0.1601

 Free energy of the ion-electron system (eV)
  ---------------------------------------------------
  alpha Z        PSCENC =       932.59998000
  Ewald energy   TEWEN  =     93377.61939795
  -Hartree energ DENC   =   -121157.91912701
  -exchange      EXHF   =         0.00000000
  -V(xc)+E(xc)   XCENC  =       121.00766575
  PAW double counting   =     31878.69238260   -30959.72612122
  entropy T*S    EENTRO =        -1.27962161
  eigenvalues    EBANDS =      -820.22982423
  atomic energy  EATOM  =     26395.15748898
  Solvation  Ediel_sol  =         0.00000000
  ---------------------------------------------------
  free energy    TOTEN  =      -234.07777880 eV

  energy without entropy =     -232.79815718  energy(sigma->0) =     -233.43796799


--------------------------------------------------------------------------------------------------------




----------------------------------------- Iteration    1(   9)  ---------------------------------------


    POTLOK:  cpu time    1.3168: real time    1.6758
    SETDIJ:  cpu time    0.1690: real time    0.1690
    EDDIAG:  cpu time   14.9657: real time   15.1791
  RMM-DIIS:  cpu time   51.3522: real time   51.7009
    ORTHCH:  cpu time    3.6235: real time    3.6329
       DOS:  cpu time    0.0240: real time    0.0242
    CHARGE:  cpu time    2.0037: real time    2.0028
    MIXING:  cpu time    0.0030: real time    0.0035
    --------------------------------------------
      LOOP:  cpu time   73.4598: real time   74.4020

 eigenvalue-minimisations  : 25235
 total energy-change (2. order) : 0.9996504E+01  (-0.8777725E+00)
 number of electron     364.0000020 magnetization 
 augmentation part      112.0910597 magnetization 

 Broyden mixing:
  rms(total) = 0.23053E+01    rms(broyden)= 0.23051E+01
  rms(prec ) = 0.29612E+01
  weight for this iteration     100.00

 eigenvalues of (default mixing * dielectric matrix)
  average eigenvalue GAMMA=   0.7899
  2.3275  0.9535  0.2705  0.2705  0.1275

 Free energy of the ion-electron system (eV)
  ---------------------------------------------------
  alpha Z        PSCENC =       932.59998000
  Ewald energy   TEWEN  =     93377.61939795
  -Hartree energ DENC   =   -121176.29836498
  -exchange      EXHF   =         0.00000000
  -V(xc)+E(xc)   XCENC  =       121.24902592
  PAW double counting   =     32148.54511363   -31231.39636512
  entropy T*S    EENTRO =        -1.88672710
  eigenvalues    EBANDS =      -789.67082388
  atomic energy  EATOM  =     26395.15748898
  Solvation  Ediel_sol  =         0.00000000
  ---------------------------------------------------
  free energy    TOTEN  =      -224.08127460 eV

  energy without entropy =     -222.19454750  energy(sigma->0) =     -223.13791105


--------------------------------------------------------------------------------------------------------




----------------------------------------- Iteration    1(  10)  ---------------------------------------


    POTLOK:  cpu time    1.7527: real time    1.7529
    SETDIJ:  cpu time    0.1740: real time    0.1740
    EDDIAG:  cpu time   15.1917: real time   15.1992
  RMM-DIIS:  cpu time   46.1800: real time   46.5884
    ORTHCH:  cpu time    3.7714: real time    3.8017
       DOS:  cpu time    0.0030: real time    0.0035
    CHARGE:  cpu time    1.9807: real time    1.9808
    MIXING:  cpu time    0.0040: real time    0.0034
    --------------------------------------------
      LOOP:  cpu time   69.0585: real time   69.5844

 eigenvalue-minimisations  : 24403
 total energy-change (2. order) : 0.5538495E+01  (-0.2978202E+00)
 number of electron     364.0000007 magnetization 
 augmentation part      112.1711929 magnetization 

 Broyden mixing:
  rms(total) = 0.83161E+00    rms(broyden)= 0.83153E+00
  rms(prec ) = 0.96282E+00
  weight for this iteration     100.00

 eigenvalues of (default mixing * dielectric matrix)
  average eigenvalue GAMMA=   0.7264
  2.1971  0.9814  0.3530  0.3530  0.3508  0.1231

 Free energy of the ion-electron system (eV)
  ---------------------------------------------------
  alpha Z        PSCENC =       932.59998000
  Ewald energy   TEWEN  =     93377.61939795
  -Hartree energ DENC   =   -121183.05541643
  -exchange      EXHF   =         0.00000000
  -V(xc)+E(xc)   XCENC  =       121.34925692
  PAW double counting   =     32322.11445798   -31406.42710815
  entropy T*S    EENTRO =        -1.99354888
  eigenvalues    EBANDS =      -775.90728768
  atomic energy  EATOM  =     26395.15748898
  Solvation  Ediel_sol  =         0.00000000
  ---------------------------------------------------
  free energy    TOTEN  =      -218.54277931 eV

  energy without entropy =     -216.54923044  energy(sigma->0) =     -217.54600487


--------------------------------------------------------------------------------------------------------




----------------------------------------- Iteration    1(  11)  ---------------------------------------


    POTLOK:  cpu time    0.4849: real time    0.4855
    SETDIJ:  cpu time    0.0080: real time    0.0075
    EDDIAG:  cpu time   12.7671: real time   12.7657
  RMM-DIIS:  cpu time   46.1040: real time   46.1436
    ORTHCH:  cpu time    3.6374: real time    3.6761
       DOS:  cpu time    0.0040: real time    0.0033
    CHARGE:  cpu time    2.0867: real time    2.0866
    MIXING:  cpu time    0.0040: real time    0.0034
    --------------------------------------------
      LOOP:  cpu time   65.0981: real time   65.2072

 eigenvalue-minimisations  : 24925
 total energy-change (2. order) : 0.3062005E+00  (-0.1164940E+00)
 number of electron     364.0000012 magnetization 
 augmentation part      112.0514400 magnetization 

 Broyden mixing:
  rms(total) = 0.60981E+00    rms(broyden)= 0.60978E+00
  rms(prec ) = 0.70394E+00
  weight for this iteration     100.00

 eigenvalues of (default mixing * dielectric matrix)
  average eigenvalue GAMMA=   0.6933
  2.1041  0.9888  0.6251  0.4658  0.2735  0.2735  0.1224

 Free energy of the ion-electron system (eV)
  ---------------------------------------------------
  alpha Z        PSCENC =       932.59998000
  Ewald energy   TEWEN  =     93377.61939795
  -Hartree energ DENC   =   -121184.93482420
  -exchange      EXHF   =         0.00000000
  -V(xc)+E(xc)   XCENC  =       121.60767846
  PAW double counting   =     32214.68980805   -31297.33982787
  entropy T*S    EENTRO =        -2.05730669
  eigenvalues    EBANDS =      -775.57897352
  atomic energy  EATOM  =     26395.15748898
  Solvation  Ediel_sol  =         0.00000000
  ---------------------------------------------------
  free energy    TOTEN  =      -218.23657884 eV

  energy without entropy =     -216.17927215  energy(sigma->0) =     -217.20792550


--------------------------------------------------------------------------------------------------------




----------------------------------------- Iteration    1(  12)  ---------------------------------------


    POTLOK:  cpu time    0.0590: real time    0.0595
    SETDIJ:  cpu time    0.0080: real time    0.0074
    EDDIAG:  cpu time   12.6751: real time   12.6750
  RMM-DIIS:  cpu time   45.8360: real time   45.9544
    ORTHCH:  cpu time    3.5325: real time    3.5518
       DOS:  cpu time    0.0030: real time    0.0035
    CHARGE:  cpu time    1.9837: real time    1.9821
    MIXING:  cpu time    0.0030: real time    0.0036
    --------------------------------------------
      LOOP:  cpu time   64.1013: real time   64.2924

 eigenvalue-minimisations  : 25446
 total energy-change (2. order) : 0.2220209E+00  (-0.3848880E-01)
 number of electron     364.0000011 magnetization 
 augmentation part      111.9491570 magnetization 

 Broyden mixing:
  rms(total) = 0.37430E+00    rms(broyden)= 0.37428E+00
  rms(prec ) = 0.45467E+00
  weight for this iteration     100.00

 eigenvalues of (default mixing * dielectric matrix)
  average eigenvalue GAMMA=   0.6934
  2.1461  0.8649  0.8649  0.6865  0.3054  0.3054  0.1227  0.2512

 Free energy of the ion-electron system (eV)
  ---------------------------------------------------
  alpha Z        PSCENC =       932.59998000
  Ewald energy   TEWEN  =     93377.61939795
  -Hartree energ DENC   =   -121190.69010289
  -exchange      EXHF   =         0.00000000
  -V(xc)+E(xc)   XCENC  =       121.74929042
  PAW double counting   =     32154.52725389   -31236.28293304
  entropy T*S    EENTRO =        -2.05944294
  eigenvalues    EBANDS =      -770.63549027
  atomic energy  EATOM  =     26395.15748898
  Solvation  Ediel_sol  =         0.00000000
  ---------------------------------------------------
  free energy    TOTEN  =      -218.01455791 eV

  energy without entropy =     -215.95511497  energy(sigma->0) =     -216.98483644


--------------------------------------------------------------------------------------------------------




----------------------------------------- Iteration    1(  13)  ---------------------------------------


    POTLOK:  cpu time    0.0600: real time    0.0600
    SETDIJ:  cpu time    0.0070: real time    0.0073
    EDDIAG:  cpu time   12.9990: real time   12.9970
  RMM-DIIS:  cpu time   45.8630: real time   46.0435
    ORTHCH:  cpu time    3.5685: real time    3.6160
       DOS:  cpu time    0.0030: real time    0.0035
    CHARGE:  cpu time    2.0077: real time    2.0078
    MIXING:  cpu time    0.0040: real time    0.0038
    --------------------------------------------
      LOOP:  cpu time   64.5132: real time   64.7627

 eigenvalue-minimisations  : 25141
 total energy-change (2. order) : 0.8374489E-01  (-0.1510747E-01)
 number of electron     364.0000007 magnetization 
 augmentation part      111.9279801 magnetization 

 Broyden mixing:
  rms(total) = 0.18562E+00    rms(broyden)= 0.18560E+00
  rms(prec ) = 0.20351E+00
  weight for this iteration     100.00

 eigenvalues of (default mixing * dielectric matrix)
  average eigenvalue GAMMA=   0.7420
  2.1975  1.2071  1.2071  0.6952  0.4170  0.1227  0.2921  0.2921  0.2476

 Free energy of the ion-electron system (eV)
  ---------------------------------------------------
  alpha Z        PSCENC =       932.59998000
  Ewald energy   TEWEN  =     93377.61939795
  -Hartree energ DENC   =   -121197.59872987
  -exchange      EXHF   =         0.00000000
  -V(xc)+E(xc)   XCENC  =       121.74728119
  PAW double counting   =     32166.98352524   -31248.94589152
  entropy T*S    EENTRO =        -2.05422413
  eigenvalues    EBANDS =      -763.43964086
  atomic energy  EATOM  =     26395.15748898
  Solvation  Ediel_sol  =         0.00000000
  ---------------------------------------------------
  free energy    TOTEN  =      -217.93081301 eV

  energy without entropy =     -215.87658889  energy(sigma->0) =     -216.90370095


--------------------------------------------------------------------------------------------------------




----------------------------------------- Iteration    1(  14)  ---------------------------------------


    POTLOK:  cpu time    0.0600: real time    0.0607
    SETDIJ:  cpu time    0.0080: real time    0.0073
    EDDIAG:  cpu time   12.9580: real time   13.1041
  RMM-DIIS:  cpu time   48.8836: real time   49.3535
    ORTHCH:  cpu time    3.6654: real time    3.6856
       DOS:  cpu time    0.0040: real time    0.0035
    CHARGE:  cpu time    2.0107: real time    2.0107
    MIXING:  cpu time    0.0040: real time    0.0041
    --------------------------------------------
      LOOP:  cpu time   67.5957: real time   68.2707

 eigenvalue-minimisations  : 25467
 total energy-change (2. order) : 0.4895907E-02  (-0.5426304E-02)
 number of electron     364.0000006 magnetization 
 augmentation part      111.9014081 magnetization 

 Broyden mixing:
  rms(total) = 0.14199E+00    rms(broyden)= 0.14198E+00
  rms(prec ) = 0.18199E+00
  weight for this iteration     100.00

 eigenvalues of (default mixing * dielectric matrix)
  average eigenvalue GAMMA=   0.7574
  1.7624  1.7624  1.4715  0.6251  0.6251  0.1227  0.3495  0.3047  0.3047  0.2457

 Free energy of the ion-electron system (eV)
  ---------------------------------------------------
  alpha Z        PSCENC =       932.59998000
  Ewald energy   TEWEN  =     93377.61939795
  -Hartree energ DENC   =   -121205.67051829
  -exchange      EXHF   =         0.00000000
  -V(xc)+E(xc)   XCENC  =       121.77865416
  PAW double counting   =     32170.45214469   -31252.47832147
  entropy T*S    EENTRO =        -2.04479329
  eigenvalues    EBANDS =      -755.33994983
  atomic energy  EATOM  =     26395.15748898
  Solvation  Ediel_sol  =         0.00000000
  ---------------------------------------------------
  free energy    TOTEN  =      -217.92591711 eV

  energy without entropy =     -215.88112382  energy(sigma->0) =     -216.90352046


--------------------------------------------------------------------------------------------------------




----------------------------------------- Iteration    1(  15)  ---------------------------------------


    POTLOK:  cpu time    0.1100: real time    0.1106
    SETDIJ:  cpu time    0.0080: real time    0.0074
    EDDIAG:  cpu time   13.1340: real time   13.1428
  RMM-DIIS:  cpu time   44.8412: real time   45.2037
    ORTHCH:  cpu time    3.5805: real time    3.6169
       DOS:  cpu time    0.0040: real time    0.0033
    CHARGE:  cpu time    2.0557: real time    2.0554
    MIXING:  cpu time    0.0050: real time    0.0043
    --------------------------------------------
      LOOP:  cpu time   63.7393: real time   64.1769

 eigenvalue-minimisations  : 25018
 total energy-change (2. order) : 0.1553678E-01  (-0.1458014E-02)
 number of electron     364.0000007 magnetization 
 augmentation part      111.8674852 magnetization 

 Broyden mixing:
  rms(total) = 0.83068E-01    rms(broyden)= 0.83066E-01
  rms(prec ) = 0.10057E+00
  weight for this iteration     100.00

 eigenvalues of (default mixing * dielectric matrix)
  average eigenvalue GAMMA=   0.8000
  2.1872  2.1872  1.2237  0.7081  0.7081  0.4938  0.1227  0.2999  0.2999  0.3230
  0.2463

 Free energy of the ion-electron system (eV)
  ---------------------------------------------------
  alpha Z        PSCENC =       932.59998000
  Ewald energy   TEWEN  =     93377.61939795
  -Hartree energ DENC   =   -121209.96742989
  -exchange      EXHF   =         0.00000000
  -V(xc)+E(xc)   XCENC  =       121.85764153
  PAW double counting   =     32142.60015297   -31224.20662955
  entropy T*S    EENTRO =        -2.05185008
  eigenvalues    EBANDS =      -751.51913223
  atomic energy  EATOM  =     26395.15748898
  Solvation  Ediel_sol  =         0.00000000
  ---------------------------------------------------
  free energy    TOTEN  =      -217.91038033 eV

  energy without entropy =     -215.85853025  energy(sigma->0) =     -216.88445529


--------------------------------------------------------------------------------------------------------




----------------------------------------- Iteration    1(  16)  ---------------------------------------


    POTLOK:  cpu time    1.7037: real time    1.7039
    SETDIJ:  cpu time    0.1570: real time    0.1569
    EDDIAG:  cpu time   18.6062: real time   18.7476
  RMM-DIIS:  cpu time   47.5478: real time   48.1010
    ORTHCH:  cpu time    3.7374: real time    3.7473
       DOS:  cpu time    0.0040: real time    0.0041
    CHARGE:  cpu time    2.0267: real time    2.0270
    MIXING:  cpu time    0.0040: real time    0.0045
    --------------------------------------------
      LOOP:  cpu time   73.7878: real time   74.5159

 eigenvalue-minimisations  : 24938
 total energy-change (2. order) : 0.5541345E-02  (-0.7158969E-03)
 number of electron     364.0000008 magnetization 
 augmentation part      111.8579020 magnetization 

 Broyden mixing:
  rms(total) = 0.45198E-01    rms(broyden)= 0.45194E-01
  rms(prec ) = 0.50372E-01
  weight for this iteration     100.00

 eigenvalues of (default mixing * dielectric matrix)
  average eigenvalue GAMMA=   0.7950
  2.2377  2.2377  1.3024  0.7554  0.7554  0.5912  0.1227  0.3009  0.3009  0.3715
  0.2464  0.3183

 Free energy of the ion-electron system (eV)
  ---------------------------------------------------
  alpha Z        PSCENC =       932.59998000
  Ewald energy   TEWEN  =     93377.61939795
  -Hartree energ DENC   =   -121212.20099270
  -exchange      EXHF   =         0.00000000
  -V(xc)+E(xc)   XCENC  =       121.91050229
  PAW double counting   =     32127.35141963   -31208.72085664
  entropy T*S    EENTRO =        -2.05671483
  eigenvalues    EBANDS =      -749.56506365
  atomic energy  EATOM  =     26395.15748898
  Solvation  Ediel_sol  =         0.00000000
  ---------------------------------------------------
  free energy    TOTEN  =      -217.90483898 eV

  energy without entropy =     -215.84812415  energy(sigma->0) =     -216.87648157


--------------------------------------------------------------------------------------------------------




----------------------------------------- Iteration    1(  17)  ---------------------------------------


    POTLOK:  cpu time    0.4309: real time    0.4311
    SETDIJ:  cpu time    0.0070: real time    0.0074
    EDDIAG:  cpu time   12.8790: real time   12.8867
  RMM-DIIS:  cpu time   47.8537: real time   48.0040
    ORTHCH:  cpu time    3.8344: real time    3.8343
       DOS:  cpu time    0.0040: real time    0.0033
    CHARGE:  cpu time    1.9597: real time    1.9596
    MIXING:  cpu time    0.0050: real time    0.0048
    --------------------------------------------
      LOOP:  cpu time   66.9758: real time   67.1457

 eigenvalue-minimisations  : 25063
 total energy-change (2. order) : 0.1059652E-02  (-0.3333411E-03)
 number of electron     364.0000008 magnetization 
 augmentation part      111.8615229 magnetization 

 Broyden mixing:
  rms(total) = 0.27746E-01    rms(broyden)= 0.27744E-01
  rms(prec ) = 0.30553E-01
  weight for this iteration     100.00

 eigenvalues of (default mixing * dielectric matrix)
  average eigenvalue GAMMA=   0.7839
  2.1798  2.1798  1.4505  0.8532  0.8532  0.6078  0.5117  0.1227  0.3007  0.3007
  0.3225  0.2455  0.2624

 Free energy of the ion-electron system (eV)
  ---------------------------------------------------
  alpha Z        PSCENC =       932.59998000
  Ewald energy   TEWEN  =     93377.61939795
  -Hartree energ DENC   =   -121213.44883307
  -exchange      EXHF   =         0.00000000
  -V(xc)+E(xc)   XCENC  =       121.91836625
  PAW double counting   =     32132.04118144   -31213.45923544
  entropy T*S    EENTRO =        -2.05724585
  eigenvalues    EBANDS =      -748.27487958
  atomic energy  EATOM  =     26395.15748898
  Solvation  Ediel_sol  =         0.00000000
  ---------------------------------------------------
  free energy    TOTEN  =      -217.90377933 eV

  energy without entropy =     -215.84653348  energy(sigma->0) =     -216.87515640


--------------------------------------------------------------------------------------------------------




----------------------------------------- Iteration    1(  18)  ---------------------------------------


    POTLOK:  cpu time    1.5178: real time    1.5179
    SETDIJ:  cpu time    0.1830: real time    0.1829
    EDDIAG:  cpu time   17.4144: real time   17.4157
  RMM-DIIS:  cpu time   46.1710: real time   46.5286
    ORTHCH:  cpu time    3.6994: real time    3.8494
       DOS:  cpu time    0.0030: real time    0.0034
    CHARGE:  cpu time    1.8997: real time    2.0390
    MIXING:  cpu time    0.0040: real time    0.0045
    --------------------------------------------
      LOOP:  cpu time   70.8952: real time   71.5823

 eigenvalue-minimisations  : 25323
 total energy-change (2. order) : 0.2792631E-03  (-0.1123124E-03)
 number of electron     364.0000007 magnetization 
 augmentation part      111.8646802 magnetization 

 Broyden mixing:
  rms(total) = 0.14850E-01    rms(broyden)= 0.14849E-01
  rms(prec ) = 0.18387E-01
  weight for this iteration     100.00

 eigenvalues of (default mixing * dielectric matrix)
  average eigenvalue GAMMA=   0.7729
  2.1682  2.1682  1.5159  0.9120  0.9120  0.6143  0.6143  0.1227  0.3015  0.3015
  0.3434  0.3434  0.2469  0.2570

 Free energy of the ion-electron system (eV)
  ---------------------------------------------------
  alpha Z        PSCENC =       932.59998000
  Ewald energy   TEWEN  =     93377.61939795
  -Hartree energ DENC   =   -121214.38585967
  -exchange      EXHF   =         0.00000000
  -V(xc)+E(xc)   XCENC  =       121.91706676
  PAW double counting   =     32138.69695827   -31220.19036839
  entropy T*S    EENTRO =        -2.05648508
  eigenvalues    EBANDS =      -747.26167888
  atomic energy  EATOM  =     26395.15748898
  Solvation  Ediel_sol  =         0.00000000
  ---------------------------------------------------
  free energy    TOTEN  =      -217.90350007 eV

  energy without entropy =     -215.84701498  energy(sigma->0) =     -216.87525753


--------------------------------------------------------------------------------------------------------




[...]
    135      -0.4378      2.00000
    136      -0.4013      2.00000
    137      -0.3387      2.00000
    138      -0.3001      2.00000
    139      -0.2927      2.00000
    140      -0.2498      2.00000
    141      -0.2387      2.00000
    142      -0.2006      2.00000
    143      -0.1883      2.00000
    144      -0.1491      2.00000
    145      -0.1248      2.00000
    146      -0.0785      1.99999
    147      -0.0552      1.99999
    148      -0.0263      1.99999
    149       0.0120      1.99998
    150       0.0402      1.99998
    151       0.0755      1.99997
    152       0.1092      1.99995
    153       0.1228      1.99994
    154       0.2368      1.99983
    155       0.2682      1.99976
    156       0.3364      1.99953
    157       0.3650      1.99937
    158       0.4507      1.99853
    159       0.4633      1.99833
    160       0.4948      1.99771
    161       0.5312      1.99671
    162       0.5539      1.99587
    163       0.6214      1.99190
    164       0.6538      1.98883
    165       0.7079      1.98088
    166       0.7404      1.97363
    167       0.7788      1.96155
    168       0.7959      1.95452
    169       0.8682      1.90847
    170       0.8947      1.88238
    171       0.9254      1.84335
    172       0.9355      1.82820
    173       0.9924      1.71520
    174       1.0413      1.57391
    175       1.0487      1.54851
    176       1.0722      1.46136
    177       1.0893      1.39114
    178       1.1105      1.29797
    179       1.1252      1.22964
    180       1.1519      1.10005
    181       1.1719      1.00028
    182       1.2560      0.60280
    183       1.2781      0.51423
    184       1.3198      0.37126
    185       1.3775      0.22701
    186       1.4076      0.17317
    187       1.4324      0.13771
    188       1.4394      0.12901
    189       1.4647      0.10160
    190       1.4982      0.07375
    191       1.5102      0.06572
    192       1.8529      0.00221
    193       2.0258      0.00039
    194       2.3386      0.00002
    195       2.5780      0.00000
    196       2.6076      0.00000
    197       2.6430      0.00000
    198       2.7663      0.00000
    199       2.8720      0.00000
    200       3.0246      0.00000
    201       3.0895      0.00000
    202       3.3128      0.00000
    203       3.4031      0.00000
    204       3.5053      0.00000
    205       3.6180      0.00000
    206       3.7515      0.00000
    207       3.9399      0.00000
    208       3.9812      0.00000
    209       4.0974      0.00000
    210       4.2480      0.00000
    211       4.3496      0.00000
    212       4.3734      0.00000
    213       4.6171      0.00000
    214       4.7211      0.00000
    215       4.8553      0.00000
    216       5.0223      0.00000
    217       5.3544      0.00000
    218       5.7798      0.00000
    219       5.8326      0.00000
    220       5.9473      0.00000


--------------------------------------------------------------------------------------------------------


 soft charge-density along one line, spin component           1
         0         1         2         3         4         5         6         7         8         9
 total charge-density along one line
 
 pseudopotential strength for first ion, spin component:           1
 -6.133   0.001  -0.000  -0.011   0.000  -6.246   0.001  -0.000
  0.001  -6.031   0.000   0.001  -0.011   0.001  -6.147   0.000
 -0.000   0.000  -6.027   0.001  -0.000  -0.000   0.000  -6.143
 -0.011   0.001   0.001  -6.030   0.001  -0.011   0.001   0.001
  0.000  -0.011  -0.000   0.001  -6.133   0.000  -0.011  -0.000
 -6.246   0.001  -0.000  -0.011   0.000  -6.343   0.001  -0.000
  0.001  -6.147   0.000   0.001  -0.011   0.001  -6.246   0.000
 -0.000   0.000  -6.143   0.001  -0.000  -0.000   0.000  -6.242
 -0.011   0.001   0.001  -6.145   0.001  -0.010   0.001   0.001
  0.000  -0.011  -0.000   0.001  -6.246   0.000  -0.011  -0.000
 -0.000  -0.000  -0.032  -0.001  -0.000  -0.000  -0.000  -0.031
 -0.001  -0.000  -0.047  -0.001  -0.000  -0.001  -0.000  -0.046
  0.000  -0.004   0.000   0.000   0.000   0.000  -0.003   0.000
  0.000   0.000  -0.008   0.000   0.000   0.000   0.000  -0.008
  0.000   0.000   0.000  -0.004   0.000   0.000   0.000   0.000
  0.000  -0.003   0.000   0.000   0.001   0.000  -0.002   0.000
  0.000   0.000  -0.009   0.000   0.000   0.000   0.000  -0.008
  0.001   0.000   0.000  -0.003   0.000   0.001   0.000   0.000
 total augmentation occupancy for first ion, spin component:           1
  3.165   0.002   0.007  -0.203   0.009  -2.030  -0.002  -0.004   0.031  -0.006   0.005  -0.001  -0.001  -0.001  -0.051   0.000
  0.002   3.885   0.004   0.022  -0.206  -0.002  -2.074  -0.002  -0.014   0.040   0.006  -0.001  -0.257  -0.001  -0.000   0.012
  0.007   0.004   4.122   0.008   0.004  -0.004  -0.002  -2.537  -0.004  -0.003   0.758  -0.117  -0.000  -0.305  -0.001  -0.000
 -0.203   0.022   0.008   3.910   0.002   0.038  -0.014  -0.004  -2.090  -0.002   0.011  -0.001  -0.000  -0.002  -0.257   0.000
  0.009  -0.206   0.004   0.002   3.155  -0.006   0.033  -0.002  -0.002  -2.023   0.003  -0.000  -0.050  -0.001  -0.001   0.003
 -2.030  -0.002  -0.004   0.038  -0.006   2.538   0.001   0.002   0.085   0.004  -0.002  -0.000   0.000   0.001   0.050   0.000
 -0.002  -2.074  -0.002  -0.014   0.033   0.001   2.089   0.001   0.009   0.084  -0.003  -0.000   0.246   0.001   0.000  -0.017
 -0.004  -0.002  -2.537  -0.004  -0.002   0.002   0.001   2.714   0.001   0.001  -0.659   0.083   0.000   0.363   0.000   0.000
  0.031  -0.014  -0.004  -2.090  -0.002   0.085   0.009   0.001   2.099   0.001  -0.006  -0.000   0.000   0.001   0.246   0.000
 -0.006   0.040  -0.003  -0.002  -2.023   0.004   0.084   0.001   0.001   2.534  -0.001  -0.000   0.050   0.000   0.000  -0.003
  0.005   0.006   0.758   0.011   0.003  -0.002  -0.003  -0.659  -0.006  -0.001   2.234  -0.444  -0.000   0.186  -0.001   0.000
 -0.001  -0.001  -0.117  -0.001  -0.000  -0.000  -0.000   0.083  -0.000  -0.000  -0.444   0.109   0.000  -0.065   0.000  -0.000
 -0.001  -0.257  -0.000  -0.000  -0.050   0.000   0.246   0.000   0.000   0.050  -0.000   0.000   0.260  -0.000  -0.000  -0.014
 -0.001  -0.001  -0.305  -0.002  -0.001   0.001   0.001   0.363   0.001   0.000   0.186  -0.065  -0.000   0.147  -0.000   0.000
 -0.051  -0.000  -0.001  -0.257  -0.001   0.050   0.000   0.000   0.246   0.000  -0.001   0.000  -0.000  -0.000   0.260   0.000
  0.000   0.012  -0.000   0.000   0.003   0.000  -0.017   0.000   0.000  -0.003   0.000  -0.000  -0.014   0.000   0.000   0.001
 -0.000   0.000   0.003   0.000  -0.000   0.000   0.000  -0.019   0.000   0.000  -0.018   0.005   0.000  -0.009   0.000  -0.000
  0.003   0.000  -0.000   0.012   0.000  -0.003   0.000   0.000  -0.017   0.000   0.000  -0.000   0.000   0.000  -0.014  -0.000


------------------------ aborting loop because EDIFF is reached ----------------------------------------


    CHARGE:  cpu time    2.0197: real time    2.0193
    FORLOC:  cpu time    0.0140: real time    0.0144
    FORNL :  cpu time   12.3511: real time   12.4186
    STRESS:  cpu time   37.0264: real time   37.3075
    FORCOR:  cpu time    0.0770: real time    0.0765
    FORHAR:  cpu time    0.0290: real time    0.0295
    MIXING:  cpu time    0.0100: real time    0.0095
    OFIELD:  cpu time    0.0000: real time    0.0000

  FORCE on cell =-STRESS in cart. coord.  units (eV):
  Direction    XX          YY          ZZ          XY          YZ          ZX
  --------------------------------------------------------------------------------------
  Alpha Z   932.59998   932.59998   932.59998
  Ewald  113352.45017113350.49477************     0.82973     0.83285     0.52237
  Hartree119597.47598119596.85945************     0.28133     0.19110     0.11657
  E(xc)   -1606.88327 -1606.89295 -1617.07230     0.00400     0.00501     0.00358
  Local  ************************244517.90178    -0.98696    -0.81633    -0.49801
  n-local   167.87948   167.76019   142.20205     0.05866     0.06380     0.04101
  augment  1877.27326  1877.40355  1931.37946    -0.05548    -0.08910    -0.06179
  Kinetic  5241.04227  5241.29730  5390.39052    -0.10511    -0.16362    -0.11190
  Fock        0.00000     0.00000     0.00000     0.00000     0.00000     0.00000
  -------------------------------------------------------------------------------------
  Total     -28.61123   -28.66065    -0.18312     0.02616     0.02372     0.01183
  in kB     -34.11538   -34.17432    -0.21835     0.03120     0.02829     0.01411
  external pressure =      -22.84 kB  Pullay stress =        0.00 kB


 VOLUME and BASIS-vectors are now :
 -----------------------------------------------------------------------------
  energy-cutoff  :      400.00
  volume of cell :     1343.68
      direct lattice vectors                 reciprocal lattice vectors
     8.421641764  0.000000000  0.000000000     0.118741693 -0.068555548  0.000000000
     4.210820882  7.293355709  0.000000000     0.000000000  0.137111097  0.000000000
     0.000000000  0.000000000 21.876241706     0.000000000  0.000000000  0.045711691

  length of vectors
     8.421641764  8.421641764 21.876241706     0.137111097  0.137111097  0.045711691


 FORCES acting on ions
    electron-ion (+dipol)            ewald-force                    non-local-force                 convergence-correction
 -----------------------------------------------------------------------------------------------
   -.328E+00 -.191E+00 0.232E+04   0.299E+00 0.176E+00 -.232E+04   0.330E-01 0.186E-01 -.115E+01   0.582E-04 -.113E-03 -.836E-03
   0.334E+00 -.202E+00 0.232E+04   -.304E+00 0.187E+00 -.232E+04   -.337E-01 0.186E-01 -.115E+01   -.247E-03 -.193E-03 -.776E-03
   -.332E-02 -.532E+00 0.232E+04   0.427E-02 0.544E+00 -.232E+04   -.509E-03 -.845E-02 -.127E+01   0.189E-03 -.274E-04 -.807E-03
   -.602E-02 0.392E+00 0.232E+04   0.700E-02 -.357E+00 -.232E+04   -.466E-03 -.387E-01 -.115E+01   -.164E-03 -.309E-03 -.912E-03
   -.175E+00 -.989E-01 0.232E+04   0.175E+00 0.100E+00 -.232E+04   -.498E-02 -.328E-02 -.125E+01   0.126E-03 -.457E-04 -.857E-03
   0.184E+00 -.907E-01 0.232E+04   -.182E+00 0.924E-01 -.232E+04   0.410E-02 -.352E-02 -.125E+01   0.376E-04 -.170E-03 -.877E-03
   -.462E+00 0.264E+00 0.232E+04   0.472E+00 -.269E+00 -.232E+04   -.719E-02 0.328E-02 -.127E+01   0.198E-03 0.369E-03 -.837E-03
   0.119E-01 0.207E+00 0.232E+04   -.107E-01 -.207E+00 -.232E+04   -.660E-03 0.502E-02 -.125E+01   -.258E-04 0.323E-03 -.770E-03
   0.453E+00 0.263E+00 0.232E+04   -.461E+00 -.268E+00 -.232E+04   0.635E-02 0.341E-02 -.127E+01   -.172E-03 0.166E-03 -.802E-03
   -.883E-02 -.213E-01 0.795E+03   0.924E-02 0.223E-01 -.794E+03   -.751E-03 -.108E-02 -.246E+00   -.330E-04 -.364E-03 -.222E-02
   -.232E+00 -.361E+01 0.798E+03   0.952E-01 0.358E+01 -.798E+03   0.954E-01 0.559E-01 -.282E+00   -.128E-04 -.213E-03 -.201E-02
   0.285E+00 -.351E+01 0.798E+03   -.145E+00 0.348E+01 -.798E+03   -.102E+00 0.550E-01 -.282E+00   0.460E-04 -.148E-03 -.228E-02
   -.325E+01 0.165E+01 0.798E+03   0.316E+01 -.175E+01 -.798E+03   0.984E-01 0.507E-01 -.282E+00   0.110E-03 0.540E-04 -.195E-02
   0.855E-01 0.719E-01 0.796E+03   -.850E-01 -.707E-01 -.795E+03   -.325E-02 -.367E-02 -.281E+00   0.644E-04 0.167E-03 -.199E-02
   0.323E+01 0.165E+01 0.799E+03   -.314E+01 -.176E+01 -.798E+03   -.104E+00 0.507E-01 -.285E+00   -.175E-03 0.558E-04 -.205E-02
   -.292E+01 0.201E+01 0.798E+03   0.296E+01 -.188E+01 -.798E+03   -.233E-03 -.118E+00 -.282E+00   0.192E-03 0.155E-03 -.224E-02
   0.302E+01 0.199E+01 0.799E+03   -.307E+01 -.186E+01 -.798E+03   -.654E-02 -.117E+00 -.285E+00   -.149E-03 0.102E-03 -.207E-02
   -.394E-01 -.211E-01 0.804E+03   0.417E-01 0.234E-01 -.803E+03   -.326E-02 -.402E-02 -.445E+00   -.426E-04 0.190E-03 -.209E-02
   -.845E+00 0.621E+00 -.732E+03   0.548E+00 -.450E+00 0.732E+03   0.296E+00 -.171E+00 0.175E-01   -.127E-04 0.316E-04 -.954E-03
   0.772E+00 0.463E+00 -.732E+03   -.476E+00 -.293E+00 0.732E+03   -.295E+00 -.170E+00 0.156E-01   0.101E-03 -.105E-03 -.926E-03
   0.462E-01 -.745E+01 -.753E+03   -.475E-01 0.759E+01 0.753E+03   0.366E-02 -.146E+00 0.665E+00   -.927E-04 0.823E-04 -.950E-03
   -.349E-01 0.319E+01 -.720E+03   0.353E-01 -.325E+01 0.719E+03   -.169E-02 0.559E-01 0.511E+00   -.458E-04 0.863E-04 -.844E-03
   -.646E+01 0.386E+01 -.753E+03   0.659E+01 -.393E+01 0.753E+03   -.126E+00 0.747E-01 0.662E+00   0.165E-03 0.175E-04 -.919E-03
   0.644E+01 0.385E+01 -.753E+03   -.657E+01 -.392E+01 0.752E+03   0.130E+00 0.728E-01 0.663E+00   -.118E-03 0.151E-03 -.902E-03
   -.277E+01 -.170E+01 -.720E+03   0.282E+01 0.173E+01 0.719E+03   -.488E-01 -.282E-01 0.507E+00   -.197E-04 -.687E-04 -.107E-02
   0.158E+00 -.114E+01 -.732E+03   -.158E+00 0.801E+00 0.732E+03   -.157E-02 0.342E+00 0.189E-01   0.163E-03 -.162E-03 -.109E-02
   0.262E+01 -.171E+01 -.720E+03   -.267E+01 0.173E+01 0.719E+03   0.500E-01 -.294E-01 0.510E+00   -.142E-03 -.283E-04 -.101E-02
   0.167E+01 0.917E+00 -.226E+04   -.169E+01 -.928E+00 0.226E+04   0.218E-01 0.136E-01 0.100E+01   0.473E-04 -.481E-04 0.195E-03
   -.169E+01 0.959E+00 -.226E+04   0.170E+01 -.968E+00 0.226E+04   -.149E-01 0.121E-01 0.100E+01   0.564E-04 -.109E-03 0.105E-03
   -.141E+00 0.235E+01 -.225E+04   0.137E+00 -.295E+01 0.225E+04   0.446E-02 0.601E+00 0.133E+01   -.109E-03 -.265E-04 0.160E-03
   0.959E-01 -.222E+01 -.226E+04   -.953E-01 0.222E+01 0.226E+04   -.566E-03 -.670E-02 0.100E+01   -.361E-06 0.964E-04 0.207E-03
   0.556E+02 0.321E+02 -.226E+04   -.547E+02 -.316E+02 0.226E+04   -.859E+00 -.495E+00 -.152E+01   0.252E-04 0.424E-04 0.146E-03
   -.556E+02 0.322E+02 -.226E+04   0.547E+02 -.317E+02 0.226E+04   0.862E+00 -.497E+00 -.152E+01   -.338E-04 0.154E-03 0.210E-03
   0.209E+01 -.122E+01 -.225E+04   -.261E+01 0.152E+01 0.225E+04   0.521E+00 -.296E+00 0.134E+01   -.974E-05 -.756E-04 0.189E-03
   0.678E-01 -.640E+02 -.226E+04   -.702E-01 0.631E+02 0.226E+04   0.247E-02 0.995E+00 -.152E+01   0.925E-04 -.608E-04 0.132E-03
   -.211E+01 -.108E+01 -.225E+04   0.263E+01 0.138E+01 0.225E+04   -.522E+00 -.299E+00 0.133E+01   -.856E-04 -.482E-05 0.146E-03
   -.763E-01 -.103E+00 -.110E+04   0.737E-01 0.103E+00 0.110E+04   0.125E-02 0.350E-03 -.515E+01   0.401E-04 0.430E-04 0.123E-03
 -----------------------------------------------------------------------------------------------
   -.791E-03 0.276E-03 0.128E+02   0.361E-15 0.604E-13 0.455E-12   -.697E-02 -.770E-02 -.128E+02   0.202E-04 0.169E-04 -.334E-01
 
 
 POSITION                                       TOTAL-FORCE (eV/Angst)
 -----------------------------------------------------------------------------------
      0.00000      0.00000      7.50000         0.004308      0.002821     -0.052122
      2.80721      0.00000      7.50000        -0.003212      0.002832     -0.052025
      5.61443      0.00000      7.50000         0.000837      0.003771     -0.066831
      1.40361      2.43112      7.50000         0.000552     -0.003782     -0.052032
      4.21082      2.43112      7.50000        -0.003907     -0.001835     -0.051817
      7.01803      2.43112      7.50000         0.005382     -0.001777     -0.052283
      2.80721      4.86224      7.50000         0.003281     -0.000509     -0.066646
      5.61443      4.86224      7.50000         0.000766      0.006137     -0.052188
      8.42164      4.86224      7.50000        -0.001923     -0.000760     -0.066501
      1.40361      0.81037      9.79208        -0.000169     -0.000321     -0.040338
      4.21082      0.81037      9.79208        -0.040764      0.034772      0.064439
      7.01803      0.81037      9.79208         0.037779      0.033163      0.064192
      2.80721      3.24149      9.79208         0.010928     -0.054057      0.063784
      5.61443      3.24149      9.79208        -0.002515     -0.002076      0.249331
      8.42164      3.24149      9.79208        -0.013195     -0.053867      0.061234
      4.21082      5.67261      9.79208         0.048875      0.014834      0.063575
      7.01803      5.67261      9.79208        -0.052633      0.014712      0.060381
      9.82525      5.67261      9.79208        -0.000872     -0.001369     -0.018547
      8.40821      1.62601     12.07797         0.000043     -0.000371     -0.004432
      2.81833      1.62612     12.07864         0.000530      0.000286     -0.005552
      5.61311      1.63029     12.08665         0.002429     -0.000843     -0.006773
      9.82391      4.04830     12.05018        -0.001084     -0.001072     -0.000965
      4.21913      4.04475     12.08676        -0.001035      0.000633     -0.008078
      7.00688      4.04492     12.08617         0.002292     -0.000647     -0.007460
     11.22880      6.48190     12.05072        -0.000025     -0.000155     -0.004296
      5.61321      6.46792     12.07794        -0.001286      0.000715     -0.003833
      8.41866      6.48206     12.05023         0.000513     -0.000660     -0.002915
     12.62263      7.28611     14.36248         0.001750      0.002506     -0.004206
      7.02212      7.28614     14.36219        -0.002569      0.003664     -0.002792
      9.82255      7.25798     14.34723         0.000469     -0.000811     -0.004227
      9.82306      2.43365     14.36115         0.000289     -0.004007     -0.002370
      4.09204      2.36052     14.49550        -0.003762     -0.001286     -0.003196
      7.13248      2.36152     14.49306         0.009472     -0.003588     -0.000927
     11.19843      4.87445     14.34694        -0.001161      0.000522     -0.003122
      5.61245      4.99426     14.49252         0.000364      0.010157      0.000604
      8.44809      4.87522     14.34681         0.000352      0.001070     -0.005271
      5.61251      3.23920     15.21932        -0.001097      0.001201      0.014204
 -----------------------------------------------------------------------------------
    total drift:                               -0.007740     -0.007409     -0.030500


--------------------------------------------------------------------------------------------------------



  FREE ENERGIE OF THE ION-ELECTRON SYSTEM (eV)
  ---------------------------------------------------
  free  energy   TOTEN  =      -217.90356144 eV

  energy  without entropy=     -215.84738469  energy(sigma->0) =     -216.87547306
 


--------------------------------------------------------------------------------------------------------


    POTLOK:  cpu time    0.0700: real time    0.0703


--------------------------------------------------------------------------------------------------------


 stress matrix after NEB project (eV)
    -28.61123      0.02616      0.01183
      0.02616    -28.66065      0.02372
      0.01183      0.02372     -0.18312
  FORCES: max atom, RMS     0.014297    0.004800
  FORCE total and by dimension    0.029199    0.014204
  Stress total and by dimension   40.497802   28.660655
     LOOP+:  cpu time 2694.9643: real time 2719.3711
    4ORBIT:  cpu time    0.0000: real time    0.0000

 total amount of memory used by VASP on root node   285648. kBytes
========================================================================

   base      :      30000. kBytes
   nonlr-proj:       4569. kBytes
   fftplans  :       4497. kBytes
   grid      :       7117. kBytes
   one-center:        155. kBytes
   wavefun   :     239310. kBytes
 
  
  
 General timing and accounting informations for this job:
 ========================================================
  
                  Total CPU time used (sec):     2721.843
                            User time (sec):     2082.833
                          System time (sec):      639.010
                         Elapsed time (sec):     2746.793
  
                   Maximum memory used (kb):      349380.
                   Average memory used (kb):           0.
  
                          Minor page faults:      9371455
                          Major page faults:            7
                 Voluntary context switches:        13778
