   2   2   0   0
  0.4000000E+04  0.2000000E-08  0.2000000E-08  0.2000000E-08  0.5000000E-15
  1.000000000000000E-004
  CAR 
 unknown system                          
      1.34569107    -11.32493272  301     -7.94609971      1.00000000
    -11.325  0.0000E+00  0.0000E+00
    -11.283  0.0000E+00  0.0000E+00
    -11.240  0.0000E+00  0.0000E+00
    -11.198  0.0000E+00  0.0000E+00
    -11.156  0.1164E-01  0.4917E-03
    -11.114  0.6116E-02  0.7500E-03
    -11.072  0.9327E-02  0.1144E-02
    -11.029  0.1422E-01  0.1745E-02
    -10.987  0.2168E-01  0.2660E-02
    -10.945  0.3303E-01  0.4055E-02
    -10.903  0.5031E-01  0.6180E-02
    -10.860  0.7654E-01  0.9413E-02
    -10.818  0.1163E+00  0.1432E-01
    -10.776  0.1763E+00  0.2177E-01
    -10.734  0.2664E+00  0.3302E-01
    -10.691  0.4007E+00  0.4995E-01
    -10.649  0.5981E+00  0.7521E-01
    -10.607  0.8832E+00  0.1125E+00
    -10.565  0.1283E+01  0.1667E+00
    -10.522  0.1822E+01  0.2436E+00
    -10.480  0.2502E+01  0.3493E+00
    -10.438  0.3286E+01  0.4881E+00
    -10.396  0.4069E+01  0.6600E+00
    -10.354  0.4689E+01  0.8580E+00
    -10.311  0.4975E+01  0.1068E+01
    -10.269  0.4836E+01  0.1272E+01
    -10.227  0.4317E+01  0.1455E+01
    -10.185  0.3570E+01  0.1605E+01
    -10.142  0.2771E+01  0.1723E+01
    -10.100  0.2047E+01  0.1809E+01
    -10.058  0.1457E+01  0.1871E+01
    -10.016  0.1010E+01  0.1913E+01
     -9.973  0.6875E+00  0.1942E+01
     -9.931  0.4621E+00  0.1962E+01
     -9.889  0.3080E+00  0.1975E+01
     -9.847  0.2041E+00  0.1983E+01
     -9.804  0.1348E+00  0.1989E+01
     -9.762  0.8876E-01  0.1993E+01
     -9.720  0.5836E-01  0.1995E+01
     -9.678  0.3834E-01  0.1997E+01
     -9.636  0.2516E-01  0.1998E+01
     -9.593  0.1651E-01  0.1999E+01
     -9.551  0.1083E-01  0.1999E+01
     -9.509  0.0000E+00  0.2000E+01
     -9.467  0.0000E+00  0.2000E+01
     -9.424  0.0000E+00  0.2000E+01
     -9.382  0.0000E+00  0.2000E+01
     -9.340  0.0000E+00  0.2000E+01
     -9.298  0.0000E+00  0.2000E+01
     -9.255  0.0000E+00  0.2000E+01
     -9.213  0.0000E+00  0.2000E+01
     -9.171  0.0000E+00  0.2000E+01
     -9.129  0.0000E+00  0.2000E+01
     -9.086  0.0000E+00  0.2000E+01
     -9.044  0.0000E+00  0.2000E+01
     -9.002  0.0000E+00  0.2000E+01
     -8.960  0.0000E+00  0.2000E+01
     -8.918  0.0000E+00  0.2000E+01
     -8.875  0.0000E+00  0.2000E+01
     -8.833  0.0000E+00  0.2000E+01
     -8.791  0.0000E+00  0.2000E+01
     -8.749  0.0000E+00  0.2000E+01
     -8.706  0.0000E+00  0.2000E+01
     -8.664  0.0000E+00  0.2000E+01
     -8.622  0.0000E+00  0.2000E+01
     -8.580  0.0000E+00  0.2000E+01
     -8.537  0.0000E+00  0.2000E+01
     -8.495  0.0000E+00  0.2000E+01
     -8.453  0.0000E+00  0.2000E+01
     -8.411  0.0000E+00  0.2000E+01
     -8.368  0.0000E+00  0.2000E+01
     -8.326  0.0000E+00  0.2000E+01
     -8.284  0.0000E+00  0.2000E+01
     -8.242  0.0000E+00  0.2000E+01
     -8.200  0.0000E+00  0.2000E+01
     -8.157  0.0000E+00  0.2000E+01
     -8.115  0.0000E+00  0.2000E+01
     -8.073  0.0000E+00  0.2000E+01
     -8.031  0.0000E+00  0.2000E+01
     -7.988  0.0000E+00  0.2000E+01
     -7.946  0.0000E+00  0.2000E+01
     -7.904  0.0000E+00  0.2000E+01
     -7.862  0.0000E+00  0.2000E+01
     -7.819  0.0000E+00  0.2000E+01
     -7.777  0.0000E+00  0.2000E+01
     -7.735  0.0000E+00  0.2000E+01
     -7.693  0.0000E+00  0.2000E+01
     -7.650  0.0000E+00  0.2000E+01
     -7.608  0.0000E+00  0.2000E+01
     -7.566  0.0000E+00  0.2000E+01
     -7.524  0.0000E+00  0.2000E+01
     -7.482  0.0000E+00  0.2000E+01
     -7.439  0.0000E+00  0.2000E+01
     -7.397  0.0000E+00  0.2000E+01
     -7.355  0.0000E+00  0.2000E+01
     -7.313  0.0000E+00  0.2000E+01
     -7.270  0.0000E+00  0.2000E+01
     -7.228  0.0000E+00  0.2000E+01
     -7.186  0.0000E+00  0.2000E+01
     -7.144  0.0000E+00  0.2000E+01
     -7.101  0.0000E+00  0.2000E+01
     -7.059  0.0000E+00  0.2000E+01
     -7.017  0.0000E+00  0.2000E+01
     -6.975  0.0000E+00  0.2000E+01
     -6.932  0.0000E+00  0.2000E+01
     -6.890  0.0000E+00  0.2000E+01
     -6.848  0.0000E+00  0.2000E+01
     -6.806  0.0000E+00  0.2000E+01
     -6.764  0.0000E+00  0.2000E+01
     -6.721  0.0000E+00  0.2000E+01
     -6.679  0.0000E+00  0.2000E+01
     -6.637  0.0000E+00  0.2000E+01
     -6.595  0.0000E+00  0.2000E+01
     -6.552  0.0000E+00  0.2000E+01
     -6.510  0.0000E+00  0.2000E+01
     -6.468  0.0000E+00  0.2000E+01
     -6.426  0.0000E+00  0.2000E+01
     -6.383  0.0000E+00  0.2000E+01
     -6.341  0.0000E+00  0.2000E+01
     -6.299  0.0000E+00  0.2000E+01
     -6.257  0.0000E+00  0.2000E+01
     -6.214  0.0000E+00  0.2000E+01
     -6.172  0.0000E+00  0.2000E+01
     -6.130  0.0000E+00  0.2000E+01
     -6.088  0.0000E+00  0.2000E+01
     -6.046  0.0000E+00  0.2000E+01
     -6.003  0.0000E+00  0.2000E+01
     -5.961  0.0000E+00  0.2000E+01
     -5.919  0.0000E+00  0.2000E+01
     -5.877  0.0000E+00  0.2000E+01
     -5.834  0.0000E+00  0.2000E+01
     -5.792  0.0000E+00  0.2000E+01
     -5.750  0.0000E+00  0.2000E+01
     -5.708  0.0000E+00  0.2000E+01
     -5.665  0.0000E+00  0.2000E+01
     -5.623  0.0000E+00  0.2000E+01
     -5.581  0.0000E+00  0.2000E+01
     -5.539  0.0000E+00  0.2000E+01
     -5.496  0.0000E+00  0.2000E+01
     -5.454  0.0000E+00  0.2000E+01
     -5.412  0.0000E+00  0.2000E+01
     -5.370  0.0000E+00  0.2000E+01
     -5.328  0.0000E+00  0.2000E+01
     -5.285  0.0000E+00  0.2000E+01
     -5.243  0.0000E+00  0.2000E+01
     -5.201  0.0000E+00  0.2000E+01
     -5.159  0.0000E+00  0.2000E+01
     -5.116  0.0000E+00  0.2000E+01
     -5.074  0.0000E+00  0.2000E+01
     -5.032  0.0000E+00  0.2000E+01
     -4.990  0.0000E+00  0.2000E+01
     -4.947  0.0000E+00  0.2000E+01
     -4.905  0.0000E+00  0.2000E+01
     -4.863  0.0000E+00  0.2000E+01
     -4.821  0.0000E+00  0.2000E+01
     -4.778  0.0000E+00  0.2000E+01
     -4.736  0.0000E+00  0.2000E+01
     -4.694  0.0000E+00  0.2000E+01
     -4.652  0.0000E+00  0.2000E+01
     -4.610  0.0000E+00  0.2000E+01
     -4.567  0.0000E+00  0.2000E+01
     -4.525  0.0000E+00  0.2000E+01
     -4.483  0.0000E+00  0.2000E+01
     -4.441  0.0000E+00  0.2000E+01
     -4.398  0.0000E+00  0.2000E+01
     -4.356  0.0000E+00  0.2000E+01
     -4.314  0.0000E+00  0.2000E+01
     -4.272  0.0000E+00  0.2000E+01
     -4.229  0.0000E+00  0.2000E+01
     -4.187  0.0000E+00  0.2000E+01
     -4.145  0.0000E+00  0.2000E+01
     -4.103  0.0000E+00  0.2000E+01
     -4.060  0.0000E+00  0.2000E+01
     -4.018  0.0000E+00  0.2000E+01
     -3.976  0.0000E+00  0.2000E+01
     -3.934  0.0000E+00  0.2000E+01
     -3.892  0.0000E+00  0.2000E+01
     -3.849  0.0000E+00  0.2000E+01
     -3.807  0.0000E+00  0.2000E+01
     -3.765  0.0000E+00  0.2000E+01
     -3.723  0.0000E+00  0.2000E+01
     -3.680  0.0000E+00  0.2000E+01
     -3.638  0.0000E+00  0.2000E+01
     -3.596  0.0000E+00  0.2000E+01
     -3.554  0.0000E+00  0.2000E+01
     -3.511  0.0000E+00  0.2000E+01
     -3.469  0.0000E+00  0.2000E+01
     -3.427  0.0000E+00  0.2000E+01
     -3.385  0.0000E+00  0.2000E+01
     -3.342  0.0000E+00  0.2000E+01
     -3.300  0.0000E+00  0.2000E+01
     -3.258  0.0000E+00  0.2000E+01
     -3.216  0.0000E+00  0.2000E+01
     -3.173  0.0000E+00  0.2000E+01
     -3.131  0.0000E+00  0.2000E+01
     -3.089  0.0000E+00  0.2000E+01
     -3.047  0.0000E+00  0.2000E+01
     -3.005  0.0000E+00  0.2000E+01
     -2.962  0.0000E+00  0.2000E+01
     -2.920  0.0000E+00  0.2000E+01
     -2.878  0.0000E+00  0.2000E+01
     -2.836  0.0000E+00  0.2000E+01
     -2.793  0.0000E+00  0.2000E+01
     -2.751  0.0000E+00  0.2000E+01
     -2.709  0.0000E+00  0.2000E+01
     -2.667  0.0000E+00  0.2000E+01
     -2.624  0.0000E+00  0.2000E+01
     -2.582  0.0000E+00  0.2000E+01
     -2.540  0.0000E+00  0.2000E+01
     -2.498  0.0000E+00  0.2000E+01
     -2.455  0.0000E+00  0.2000E+01
     -2.413  0.0000E+00  0.2000E+01
     -2.371  0.0000E+00  0.2000E+01
     -2.329  0.0000E+00  0.2000E+01
     -2.287  0.0000E+00  0.2000E+01
     -2.244  0.0000E+00  0.2000E+01
     -2.202  0.0000E+00  0.2000E+01
     -2.160  0.0000E+00  0.2000E+01
     -2.118  0.0000E+00  0.2000E+01
     -2.075  0.0000E+00  0.2000E+01
     -2.033  0.0000E+00  0.2000E+01
     -1.991  0.0000E+00  0.2000E+01
     -1.949  0.0000E+00  0.2000E+01
     -1.906  0.0000E+00  0.2000E+01
     -1.864  0.0000E+00  0.2000E+01
     -1.822  0.0000E+00  0.2000E+01
     -1.780  0.0000E+00  0.2000E+01
     -1.737  0.0000E+00  0.2000E+01
     -1.695  0.0000E+00  0.2000E+01
     -1.653  0.0000E+00  0.2000E+01
     -1.611  0.0000E+00  0.2000E+01
     -1.569  0.0000E+00  0.2000E+01
     -1.526  0.0000E+00  0.2000E+01
     -1.484  0.0000E+00  0.2000E+01
     -1.442  0.0000E+00  0.2000E+01
     -1.400  0.0000E+00  0.2000E+01
     -1.357  0.0000E+00  0.2000E+01
     -1.315  0.0000E+00  0.2000E+01
     -1.273  0.0000E+00  0.2000E+01
     -1.231  0.0000E+00  0.2000E+01
     -1.188  0.0000E+00  0.2000E+01
     -1.146  0.0000E+00  0.2000E+01
     -1.104  0.0000E+00  0.2000E+01
     -1.062  0.0000E+00  0.2000E+01
     -1.019  0.0000E+00  0.2000E+01
     -0.977  0.0000E+00  0.2000E+01
     -0.935  0.0000E+00  0.2000E+01
     -0.893  0.1087E-01  0.2000E+01
     -0.851  0.5709E-02  0.2001E+01
     -0.808  0.8707E-02  0.2001E+01
     -0.766  0.1328E-01  0.2002E+01
     -0.724  0.2024E-01  0.2002E+01
     -0.682  0.4163E-01  0.2004E+01
     -0.639  0.5264E-01  0.2006E+01
     -0.597  0.8013E-01  0.2010E+01
     -0.555  0.1367E+00  0.2016E+01
     -0.513  0.2163E+00  0.2025E+01
     -0.470  0.3317E+00  0.2039E+01
     -0.428  0.4733E+00  0.2059E+01
     -0.386  0.7103E+00  0.2089E+01
     -0.344  0.1057E+01  0.2133E+01
     -0.301  0.1555E+01  0.2199E+01
     -0.259  0.2249E+01  0.2294E+01
     -0.217  0.3177E+01  0.2428E+01
     -0.175  0.4353E+01  0.2612E+01
     -0.133  0.5743E+01  0.2855E+01
     -0.090  0.7271E+01  0.3162E+01
     -0.048  0.8862E+01  0.3536E+01
     -0.006  0.1051E+02  0.3980E+01
      0.036  0.1233E+02  0.4501E+01
      0.079  0.1449E+02  0.5113E+01
      0.121  0.1710E+02  0.5835E+01
      0.163  0.2007E+02  0.6683E+01
      0.205  0.2314E+02  0.7660E+01
      0.248  0.2581E+02  0.8750E+01
      0.290  0.2749E+02  0.9911E+01
      0.332  0.2763E+02  0.1108E+02
      0.374  0.2598E+02  0.1218E+02
      0.417  0.2279E+02  0.1314E+02
      0.459  0.1872E+02  0.1393E+02
      0.501  0.1451E+02  0.1454E+02
      0.543  0.1073E+02  0.1499E+02
      0.585  0.7649E+01  0.1532E+02
      0.628  0.5313E+01  0.1554E+02
      0.670  0.3621E+01  0.1570E+02
      0.712  0.2437E+01  0.1580E+02
      0.754  0.1618E+01  0.1587E+02
      0.797  0.1073E+01  0.1591E+02
      0.839  0.7086E+00  0.1594E+02
      0.881  0.4668E+00  0.1596E+02
      0.923  0.3070E+00  0.1598E+02
      0.966  0.1940E+00  0.1598E+02
      1.008  0.1274E+00  0.1599E+02
      1.050  0.8357E-01  0.1599E+02
      1.092  0.4926E-01  0.1600E+02
      1.135  0.1832E-01  0.1600E+02
      1.177  0.0000E+00  0.1600E+02
      1.219  0.0000E+00  0.1600E+02
      1.261  0.0000E+00  0.1600E+02
      1.303  0.0000E+00  0.1600E+02
      1.346  0.0000E+00  0.1600E+02
