    2    2    1    1
  0.4000000E+04  0.2000000E-08  0.2000000E-08  0.2000000E-08  0.5000000E-15
  1.000000000000000E-004
  CAR 
 unknown system                          
      2      1      8
 
  0.0000000E+00  0.0000000E+00  0.0000000E+00  0.1000000E+01
    1      -10.324933   1.000000
    2       -0.054845   0.000000
    3        0.157072   0.000000
    4        0.251577   0.000000
    5        0.316811   0.000000
    6        0.316828   0.000000
    7        0.342090   0.000000
    8        0.345691   0.000000
