   5   5   0   0
  0.1600000E+04  0.2000000E-08  0.2000000E-08  0.2000000E-08  0.5000000E-15
  1.000000000000000E-004
  CAR 
 unknown system                          
      1.28662621    -17.99344005  301     -6.87526851      1.00000000
    -17.993  0.0000E+00  0.0000E+00
    -17.929  0.0000E+00  0.0000E+00
    -17.865  0.0000E+00  0.0000E+00
    -17.801  0.9711E-02  0.6241E-03
    -17.736  0.8750E-02  0.1186E-02
    -17.672  0.1663E-01  0.2255E-02
    -17.608  0.3156E-01  0.4284E-02
    -17.544  0.5985E-01  0.8130E-02
    -17.479  0.1132E+00  0.1540E-01
    -17.415  0.2129E+00  0.2909E-01
    -17.351  0.3969E+00  0.5459E-01
    -17.287  0.7271E+00  0.1013E+00
    -17.222  0.1290E+01  0.1842E+00
    -17.158  0.2167E+01  0.3235E+00
    -17.094  0.3320E+01  0.5368E+00
    -17.029  0.4436E+01  0.8219E+00
    -16.965  0.4956E+01  0.1140E+01
    -16.901  0.4541E+01  0.1432E+01
    -16.837  0.3466E+01  0.1655E+01
    -16.772  0.2294E+01  0.1802E+01
    -16.708  0.1378E+01  0.1891E+01
    -16.644  0.7806E+00  0.1941E+01
    -16.580  0.4273E+00  0.1969E+01
    -16.515  0.2296E+00  0.1983E+01
    -16.451  0.1221E+00  0.1991E+01
    -16.387  0.6462E-01  0.1995E+01
    -16.323  0.3409E-01  0.1998E+01
    -16.258  0.1796E-01  0.1999E+01
    -16.194  0.9452E-02  0.1999E+01
    -16.130  0.0000E+00  0.2000E+01
    -16.065  0.0000E+00  0.2000E+01
    -16.001  0.0000E+00  0.2000E+01
    -15.937  0.0000E+00  0.2000E+01
    -15.873  0.0000E+00  0.2000E+01
    -15.808  0.0000E+00  0.2000E+01
    -15.744  0.0000E+00  0.2000E+01
    -15.680  0.0000E+00  0.2000E+01
    -15.616  0.0000E+00  0.2000E+01
    -15.551  0.0000E+00  0.2000E+01
    -15.487  0.0000E+00  0.2000E+01
    -15.423  0.0000E+00  0.2000E+01
    -15.358  0.0000E+00  0.2000E+01
    -15.294  0.0000E+00  0.2000E+01
    -15.230  0.0000E+00  0.2000E+01
    -15.166  0.0000E+00  0.2000E+01
    -15.101  0.0000E+00  0.2000E+01
    -15.037  0.0000E+00  0.2000E+01
    -14.973  0.0000E+00  0.2000E+01
    -14.909  0.0000E+00  0.2000E+01
    -14.844  0.0000E+00  0.2000E+01
    -14.780  0.0000E+00  0.2000E+01
    -14.716  0.0000E+00  0.2000E+01
    -14.652  0.0000E+00  0.2000E+01
    -14.587  0.0000E+00  0.2000E+01
    -14.523  0.0000E+00  0.2000E+01
    -14.459  0.0000E+00  0.2000E+01
    -14.394  0.0000E+00  0.2000E+01
    -14.330  0.0000E+00  0.2000E+01
    -14.266  0.0000E+00  0.2000E+01
    -14.202  0.0000E+00  0.2000E+01
    -14.137  0.0000E+00  0.2000E+01
    -14.073  0.0000E+00  0.2000E+01
    -14.009  0.0000E+00  0.2000E+01
    -13.945  0.0000E+00  0.2000E+01
    -13.880  0.0000E+00  0.2000E+01
    -13.816  0.0000E+00  0.2000E+01
    -13.752  0.0000E+00  0.2000E+01
    -13.688  0.0000E+00  0.2000E+01
    -13.623  0.0000E+00  0.2000E+01
    -13.559  0.0000E+00  0.2000E+01
    -13.495  0.0000E+00  0.2000E+01
    -13.430  0.0000E+00  0.2000E+01
    -13.366  0.0000E+00  0.2000E+01
    -13.302  0.0000E+00  0.2000E+01
    -13.238  0.0000E+00  0.2000E+01
    -13.173  0.0000E+00  0.2000E+01
    -13.109  0.0000E+00  0.2000E+01
    -13.045  0.0000E+00  0.2000E+01
    -12.981  0.0000E+00  0.2000E+01
    -12.916  0.0000E+00  0.2000E+01
    -12.852  0.0000E+00  0.2000E+01
    -12.788  0.0000E+00  0.2000E+01
    -12.724  0.0000E+00  0.2000E+01
    -12.659  0.0000E+00  0.2000E+01
    -12.595  0.0000E+00  0.2000E+01
    -12.531  0.0000E+00  0.2000E+01
    -12.466  0.0000E+00  0.2000E+01
    -12.402  0.0000E+00  0.2000E+01
    -12.338  0.0000E+00  0.2000E+01
    -12.274  0.0000E+00  0.2000E+01
    -12.209  0.0000E+00  0.2000E+01
    -12.145  0.0000E+00  0.2000E+01
    -12.081  0.0000E+00  0.2000E+01
    -12.017  0.0000E+00  0.2000E+01
    -11.952  0.0000E+00  0.2000E+01
    -11.888  0.0000E+00  0.2000E+01
    -11.824  0.0000E+00  0.2000E+01
    -11.760  0.0000E+00  0.2000E+01
    -11.695  0.0000E+00  0.2000E+01
    -11.631  0.0000E+00  0.2000E+01
    -11.567  0.0000E+00  0.2000E+01
    -11.502  0.0000E+00  0.2000E+01
    -11.438  0.0000E+00  0.2000E+01
    -11.374  0.0000E+00  0.2000E+01
    -11.310  0.0000E+00  0.2000E+01
    -11.245  0.0000E+00  0.2000E+01
    -11.181  0.0000E+00  0.2000E+01
    -11.117  0.0000E+00  0.2000E+01
    -11.053  0.0000E+00  0.2000E+01
    -10.988  0.0000E+00  0.2000E+01
    -10.924  0.0000E+00  0.2000E+01
    -10.860  0.0000E+00  0.2000E+01
    -10.796  0.0000E+00  0.2000E+01
    -10.731  0.0000E+00  0.2000E+01
    -10.667  0.0000E+00  0.2000E+01
    -10.603  0.0000E+00  0.2000E+01
    -10.538  0.0000E+00  0.2000E+01
    -10.474  0.0000E+00  0.2000E+01
    -10.410  0.0000E+00  0.2000E+01
    -10.346  0.0000E+00  0.2000E+01
    -10.281  0.0000E+00  0.2000E+01
    -10.217  0.2585E-01  0.2002E+01
    -10.153  0.2330E-01  0.2003E+01
    -10.089  0.4427E-01  0.2006E+01
    -10.024  0.8406E-01  0.2011E+01
     -9.960  0.1594E+00  0.2022E+01
     -9.896  0.3017E+00  0.2041E+01
     -9.832  0.5682E+00  0.2078E+01
     -9.767  0.1062E+01  0.2146E+01
     -9.703  0.1953E+01  0.2271E+01
     -9.639  0.3491E+01  0.2496E+01
     -9.574  0.5936E+01  0.2877E+01
     -9.510  0.9282E+01  0.3474E+01
     -9.446  0.1277E+02  0.4294E+01
     -9.382  0.1478E+02  0.5244E+01
     -9.317  0.1405E+02  0.6147E+01
     -9.253  0.1107E+02  0.6859E+01
     -9.189  0.7494E+01  0.7340E+01
     -9.125  0.4570E+01  0.7634E+01
     -9.060  0.2611E+01  0.7802E+01
     -8.996  0.1437E+01  0.7894E+01
     -8.932  0.7739E+00  0.7944E+01
     -8.868  0.4123E+00  0.7970E+01
     -8.803  0.2183E+00  0.7984E+01
     -8.739  0.1152E+00  0.7992E+01
     -8.675  0.6070E-01  0.7996E+01
     -8.610  0.3195E-01  0.7998E+01
     -8.546  0.0000E+00  0.8000E+01
     -8.482  0.0000E+00  0.8000E+01
     -8.418  0.0000E+00  0.8000E+01
     -8.353  0.0000E+00  0.8000E+01
     -8.289  0.0000E+00  0.8000E+01
     -8.225  0.0000E+00  0.8000E+01
     -8.161  0.0000E+00  0.8000E+01
     -8.096  0.0000E+00  0.8000E+01
     -8.032  0.0000E+00  0.8000E+01
     -7.968  0.0000E+00  0.8000E+01
     -7.904  0.0000E+00  0.8000E+01
     -7.839  0.0000E+00  0.8000E+01
     -7.775  0.0000E+00  0.8000E+01
     -7.711  0.0000E+00  0.8000E+01
     -7.646  0.0000E+00  0.8000E+01
     -7.582  0.0000E+00  0.8000E+01
     -7.518  0.0000E+00  0.8000E+01
     -7.454  0.0000E+00  0.8000E+01
     -7.389  0.0000E+00  0.8000E+01
     -7.325  0.0000E+00  0.8000E+01
     -7.261  0.0000E+00  0.8000E+01
     -7.197  0.0000E+00  0.8000E+01
     -7.132  0.0000E+00  0.8000E+01
     -7.068  0.0000E+00  0.8000E+01
     -7.004  0.0000E+00  0.8000E+01
     -6.940  0.0000E+00  0.8000E+01
     -6.875  0.0000E+00  0.8000E+01
     -6.811  0.0000E+00  0.8000E+01
     -6.747  0.0000E+00  0.8000E+01
     -6.682  0.0000E+00  0.8000E+01
     -6.618  0.0000E+00  0.8000E+01
     -6.554  0.0000E+00  0.8000E+01
     -6.490  0.0000E+00  0.8000E+01
     -6.425  0.0000E+00  0.8000E+01
     -6.361  0.0000E+00  0.8000E+01
     -6.297  0.0000E+00  0.8000E+01
     -6.233  0.0000E+00  0.8000E+01
     -6.168  0.0000E+00  0.8000E+01
     -6.104  0.0000E+00  0.8000E+01
     -6.040  0.0000E+00  0.8000E+01
     -5.976  0.0000E+00  0.8000E+01
     -5.911  0.0000E+00  0.8000E+01
     -5.847  0.0000E+00  0.8000E+01
     -5.783  0.0000E+00  0.8000E+01
     -5.718  0.0000E+00  0.8000E+01
     -5.654  0.0000E+00  0.8000E+01
     -5.590  0.0000E+00  0.8000E+01
     -5.526  0.0000E+00  0.8000E+01
     -5.461  0.0000E+00  0.8000E+01
     -5.397  0.0000E+00  0.8000E+01
     -5.333  0.0000E+00  0.8000E+01
     -5.269  0.0000E+00  0.8000E+01
     -5.204  0.0000E+00  0.8000E+01
     -5.140  0.0000E+00  0.8000E+01
     -5.076  0.0000E+00  0.8000E+01
     -5.012  0.0000E+00  0.8000E+01
     -4.947  0.0000E+00  0.8000E+01
     -4.883  0.0000E+00  0.8000E+01
     -4.819  0.0000E+00  0.8000E+01
     -4.754  0.0000E+00  0.8000E+01
     -4.690  0.0000E+00  0.8000E+01
     -4.626  0.0000E+00  0.8000E+01
     -4.562  0.0000E+00  0.8000E+01
     -4.497  0.0000E+00  0.8000E+01
     -4.433  0.0000E+00  0.8000E+01
     -4.369  0.0000E+00  0.8000E+01
     -4.305  0.0000E+00  0.8000E+01
     -4.240  0.0000E+00  0.8000E+01
     -4.176  0.0000E+00  0.8000E+01
     -4.112  0.0000E+00  0.8000E+01
     -4.048  0.0000E+00  0.8000E+01
     -3.983  0.0000E+00  0.8000E+01
     -3.919  0.0000E+00  0.8000E+01
     -3.855  0.0000E+00  0.8000E+01
     -3.790  0.0000E+00  0.8000E+01
     -3.726  0.0000E+00  0.8000E+01
     -3.662  0.0000E+00  0.8000E+01
     -3.598  0.0000E+00  0.8000E+01
     -3.533  0.0000E+00  0.8000E+01
     -3.469  0.0000E+00  0.8000E+01
     -3.405  0.0000E+00  0.8000E+01
     -3.341  0.0000E+00  0.8000E+01
     -3.276  0.0000E+00  0.8000E+01
     -3.212  0.0000E+00  0.8000E+01
     -3.148  0.0000E+00  0.8000E+01
     -3.084  0.0000E+00  0.8000E+01
     -3.019  0.0000E+00  0.8000E+01
     -2.955  0.0000E+00  0.8000E+01
     -2.891  0.0000E+00  0.8000E+01
     -2.826  0.0000E+00  0.8000E+01
     -2.762  0.0000E+00  0.8000E+01
     -2.698  0.0000E+00  0.8000E+01
     -2.634  0.0000E+00  0.8000E+01
     -2.569  0.0000E+00  0.8000E+01
     -2.505  0.0000E+00  0.8000E+01
     -2.441  0.0000E+00  0.8000E+01
     -2.377  0.0000E+00  0.8000E+01
     -2.312  0.0000E+00  0.8000E+01
     -2.248  0.0000E+00  0.8000E+01
     -2.184  0.0000E+00  0.8000E+01
     -2.120  0.0000E+00  0.8000E+01
     -2.055  0.0000E+00  0.8000E+01
     -1.991  0.0000E+00  0.8000E+01
     -1.927  0.0000E+00  0.8000E+01
     -1.862  0.0000E+00  0.8000E+01
     -1.798  0.0000E+00  0.8000E+01
     -1.734  0.0000E+00  0.8000E+01
     -1.670  0.0000E+00  0.8000E+01
     -1.605  0.0000E+00  0.8000E+01
     -1.541  0.0000E+00  0.8000E+01
     -1.477  0.0000E+00  0.8000E+01
     -1.413  0.0000E+00  0.8000E+01
     -1.348  0.0000E+00  0.8000E+01
     -1.284  0.0000E+00  0.8000E+01
     -1.220  0.1002E-01  0.8001E+01
     -1.156  0.9028E-02  0.8001E+01
     -1.091  0.1715E-01  0.8002E+01
     -1.027  0.3257E-01  0.8004E+01
     -0.963  0.6174E-01  0.8008E+01
     -0.898  0.1167E+00  0.8016E+01
     -0.834  0.2195E+00  0.8030E+01
     -0.770  0.4090E+00  0.8056E+01
     -0.706  0.7483E+00  0.8104E+01
     -0.641  0.1325E+01  0.8190E+01
     -0.577  0.2234E+01  0.8333E+01
     -0.513  0.3394E+01  0.8551E+01
     -0.449  0.4508E+01  0.8841E+01
     -0.384  0.5012E+01  0.9163E+01
     -0.320  0.4603E+01  0.9459E+01
     -0.256  0.3603E+01  0.9691E+01
     -0.192  0.2612E+01  0.9858E+01
     -0.127  0.2039E+01  0.9989E+01
     -0.063  0.2055E+01  0.1012E+02
      0.001  0.2781E+01  0.1030E+02
      0.066  0.4397E+01  0.1058E+02
      0.130  0.7057E+01  0.1104E+02
      0.194  0.1052E+02  0.1171E+02
      0.258  0.1370E+02  0.1259E+02
      0.323  0.1488E+02  0.1355E+02
      0.387  0.1326E+02  0.1440E+02
      0.451  0.9895E+01  0.1504E+02
      0.515  0.6445E+01  0.1545E+02
      0.580  0.3834E+01  0.1570E+02
      0.644  0.2159E+01  0.1584E+02
      0.708  0.1178E+01  0.1591E+02
      0.772  0.6318E+00  0.1595E+02
      0.837  0.3357E+00  0.1598E+02
      0.901  0.1775E+00  0.1599E+02
      0.965  0.9364E-01  0.1599E+02
      1.030  0.4932E-01  0.1600E+02
      1.094  0.0000E+00  0.1600E+02
      1.158  0.0000E+00  0.1600E+02
      1.222  0.0000E+00  0.1600E+02
      1.287  0.0000E+00  0.1600E+02
