unknown system                          
           1
    20.000000    0.000000    0.000000
     0.000000   20.000000    0.000000
     0.000000    0.000000   20.000000
   C    H 
   1   4
Direct configuration=     1
   0.50000000  0.50000000  0.50000000
   0.53166401  0.53166401  0.53166401
   0.46833599  0.46833599  0.53166401
   0.53166401  0.46833599  0.46833599
   0.46833599  0.53166401  0.46833599
