   41   41    1    1
  0.3277276E+02  0.8421642E-09  0.8421642E-09  0.2187624E-08  0.5000000E-15
  1.000000000000000E-004
  CAR 
 unknown system                          
    371     54    225
 
  0.8333333E-01  0.8333333E-01  0.0000000E+00  0.1851852E-01
    1      -13.104348   1.000000
    2       -8.833802   1.000000
    3       -7.747245   1.000000
    4       -6.496162   1.000000
    5       -5.878038   1.000000
    6       -5.459326   1.000000
    7       -5.411868   1.000000
    8       -5.355376   1.000000
    9       -5.295260   1.000000
   10       -5.244576   1.000000
   11       -5.233981   1.000000
   12       -5.162283   1.000000
   13       -5.142088   1.000000
   14       -5.033203   1.000000
   15       -4.766625   1.000000
   16       -4.703411   1.000000
   17       -4.681880   1.000000
   18       -4.663599   1.000000
   19       -4.652288   1.000000
   20       -4.631145   1.000000
   21       -4.431534   1.000000
   22       -4.217514   1.000000
   23       -4.201268   1.000000
   24       -4.193393   1.000000
   25       -4.142118   1.000000
   26       -4.134181   1.000000
   27       -4.091544   1.000000
   28       -4.026352   1.000000
   29       -4.007949   1.000000
   30       -3.955857   1.000000
   31       -3.895118   1.000000
   32       -3.868893   1.000000
   33       -3.832754   1.000000
   34       -3.797900   1.000000
   35       -3.785692   1.000000
   36       -3.755701   1.000000
   37       -3.750450   1.000000
   38       -3.722150   1.000000
   39       -3.717838   1.000000
   40       -3.696269   1.000000
   41       -3.674710   1.000000
   42       -3.620572   1.000000
   43       -3.547845   1.000000
   44       -3.534245   1.000000
   45       -3.366871   1.000000
   46       -3.183859   1.000000
   47       -3.160992   1.000000
   48       -3.115818   1.000000
   49       -3.108869   1.000000
   50       -3.096831   1.000000
   51       -3.061353   1.000000
   52       -3.025546   1.000000
   53       -2.973771   1.000000
   54       -2.942350   1.000000
   55       -2.863307   1.000000
   56       -2.838355   1.000000
   57       -2.806329   1.000000
   58       -2.790746   1.000000
   59       -2.781287   1.000000
   60       -2.380272   1.000000
   61       -2.355424   1.000000
   62       -2.299908   1.000000
   63       -2.247179   1.000000
   64       -2.225953   1.000000
   65       -2.223603   1.000000
   66       -2.196248   1.000000
   67       -2.147217   1.000000
   68       -2.128606   1.000000
   69       -2.122157   1.000000
   70       -2.110189   1.000000
   71       -2.106598   1.000000
   72       -2.075823   1.000000
   73       -2.034099   1.000000
   74       -2.024554   1.000000
   75       -1.993596   1.000000
   76       -1.973015   1.000000
   77       -1.969421   1.000000
   78       -1.935974   1.000000
   79       -1.893165   1.000000
   80       -1.884566   1.000000
   81       -1.865339   1.000000
   82       -1.851905   1.000000
   83       -1.826926   1.000000
   84       -1.775320   1.000000
   85       -1.767512   1.000000
   86       -1.742095   1.000000
   87       -1.703508   1.000000
   88       -1.624289   1.000000
   89       -1.595216   1.000000
   90       -1.574474   1.000000
   91       -1.567644   1.000000
   92       -1.533562   1.000000
   93       -1.514942   1.000000
   94       -1.501274   1.000000
   95       -1.483858   1.000000
   96       -1.480999   1.000000
   97       -1.457261   1.000000
   98       -1.430207   1.000000
   99       -1.399764   1.000000
  100       -1.386333   1.000000
  101       -1.368301   1.000000
  102       -1.353030   1.000000
  103       -1.346694   1.000000
  104       -1.282188   1.000000
  105       -1.275742   1.000000
  106       -1.224432   1.000000
  107       -1.206557   1.000000
  108       -1.205246   1.000000
  109       -1.175198   1.000000
  110       -1.140663   1.000000
  111       -1.114479   1.000000
  112       -1.040616   1.000000
  113       -1.005812   1.000000
  114       -0.890644   1.000000
  115       -0.825654   1.000000
  116       -0.812217   1.000000
  117       -0.769039   1.000000
  118       -0.708883   1.000000
  119       -0.688394   1.000000
  120       -0.631959   1.000000
  121       -0.612147   1.000000
  122       -0.597243   1.000000
  123       -0.562232   1.000000
  124       -0.555760   1.000000
  125       -0.504314   1.000000
  126       -0.466242   1.000000
  127       -0.439616   1.000000
  128       -0.368245   1.000000
  129       -0.361620   1.000000
  130       -0.297998   1.000000
  131       -0.192524   1.000000
  132       -0.172614   1.000000
  133       -0.135861   1.000000
  134       -0.103560   1.000000
  135       -0.056753   1.000000
  136       -0.041128   1.000000
  137       -0.031446   1.000000
  138       -0.011666   1.000000
  139        0.008876   1.000000
  140        0.054417   0.999999
  141        0.090239   0.999999
  142        0.092486   0.999999
  143        0.172394   0.999998
  144        0.188480   0.999997
  145        0.209690   0.999997
  146        0.270968   0.999994
  147        0.288365   0.999993
  148        0.323884   0.999990
  149        0.338213   0.999989
  150        0.358156   0.999986
  151        0.395144   0.999980
  152        0.427168   0.999972
  153        0.523183   0.999928
  154        0.535848   0.999918
  155        0.556352   0.999899
  156        0.566501   0.999888
  157        0.598354   0.999846
  158        0.614665   0.999819
  159        0.621727   0.999806
  160        0.635860   0.999777
  161        0.693681   0.999602
  162        0.698190   0.999583
  163        0.739534   0.999370
  164        0.759683   0.999230
  165        0.783112   0.999026
  166        0.785444   0.999003
  167        0.814509   0.998668
  168        0.838203   0.998312
  169        0.854929   0.998005
  170        0.866537   0.997761
  171        0.894281   0.997047
  172        0.913009   0.996440
  173        0.927495   0.995888
  174        0.929181   0.995818
  175        0.959608   0.994340
  176        0.963360   0.994124
  177        1.006135   0.991016
  178        1.019198   0.989775
  179        1.054904   0.985452
  180        1.097997   0.977789
  181        1.106788   0.975797
  182        1.123124   0.971624
  183        1.143231   0.965522
  184        1.157333   0.960506
  185        1.191772   0.945160
  186        1.194466   0.943747
  187        1.214447   0.932149
  188        1.246273   0.909036
  189        1.252580   0.903685
  190        1.270935   0.886483
  191        1.280769   0.876204
  192        1.294292   0.860774
  193        1.300890   0.852678
  194        1.386250   0.711391
  195        1.502629   0.434962
  196        1.507681   0.422588
  197        1.518491   0.396456
  198        1.536145   0.355077
  199        1.552252   0.319111
  200        1.590148   0.242903
  201        1.846543   0.024109
  202        1.901905   0.014003
  203        2.043480   0.003436
  204        2.231704   0.000525
  205        2.384586   0.000114
  206        2.429142   0.000073
  207        2.562430   0.000019
  208        3.284114   0.000000
  209        3.583910   0.000000
  210        4.125592   0.000000
  211        4.500884   0.000000
  212        4.660534   0.000000
  213        4.870078   0.000000
  214        5.239700   0.000000
  215        5.339763   0.000000
  216        5.751064   0.000000
  217        5.791650   0.000000
  218        5.940481   0.000000
  219        6.221686   0.000000
  220        6.290942   0.000000
  221        6.462938   0.000000
  222        6.653627   0.000000
  223        6.739789   0.000000
  224        6.761863   0.000000
  225        6.919942   0.000000
 
  0.0000000E+00  0.8333333E-01  0.0000000E+00  0.1851852E-01
    1      -13.104355   1.000000
    2       -8.833104   1.000000
    3       -7.747600   1.000000
    4       -6.496578   1.000000
    5       -5.879518   1.000000
    6       -5.491940   1.000000
    7       -5.378271   1.000000
    8       -5.339457   1.000000
    9       -5.297458   1.000000
   10       -5.248425   1.000000
   11       -5.229499   1.000000
   12       -5.178393   1.000000
   13       -5.146596   1.000000
   14       -5.029337   1.000000
   15       -4.738252   1.000000
   16       -4.705502   1.000000
   17       -4.679264   1.000000
   18       -4.673181   1.000000
   19       -4.664979   1.000000
   20       -4.638106   1.000000
   21       -4.418794   1.000000
   22       -4.224214   1.000000
   23       -4.199847   1.000000
   24       -4.189744   1.000000
   25       -4.158587   1.000000
   26       -4.130258   1.000000
   27       -4.064428   1.000000
   28       -4.044935   1.000000
   29       -4.008932   1.000000
   30       -3.946478   1.000000
   31       -3.882334   1.000000
   32       -3.868089   1.000000
   33       -3.830864   1.000000
   34       -3.804396   1.000000
   35       -3.792314   1.000000
   36       -3.784717   1.000000
   37       -3.742162   1.000000
   38       -3.727452   1.000000
   39       -3.714567   1.000000
   40       -3.710333   1.000000
   41       -3.661642   1.000000
   42       -3.608130   1.000000
   43       -3.550846   1.000000
   44       -3.540316   1.000000
   45       -3.381990   1.000000
   46       -3.189652   1.000000
   47       -3.148268   1.000000
   48       -3.111833   1.000000
   49       -3.103166   1.000000
   50       -3.084661   1.000000
   51       -3.065069   1.000000
   52       -3.026993   1.000000
   53       -2.973177   1.000000
   54       -2.950075   1.000000
   55       -2.854934   1.000000
   56       -2.845120   1.000000
   57       -2.825321   1.000000
   58       -2.786235   1.000000
   59       -2.770087   1.000000
   60       -2.394685   1.000000
   61       -2.344684   1.000000
   62       -2.300077   1.000000
   63       -2.249115   1.000000
   64       -2.220996   1.000000
   65       -2.209615   1.000000
   66       -2.188034   1.000000
   67       -2.158240   1.000000
   68       -2.142576   1.000000
   69       -2.128689   1.000000
   70       -2.113192   1.000000
   71       -2.094053   1.000000
   72       -2.080490   1.000000
   73       -2.026579   1.000000
   74       -2.021685   1.000000
   75       -2.000557   1.000000
   76       -1.972242   1.000000
   77       -1.952286   1.000000
   78       -1.924411   1.000000
   79       -1.907291   1.000000
   80       -1.892677   1.000000
   81       -1.874916   1.000000
   82       -1.848247   1.000000
   83       -1.827481   1.000000
   84       -1.800783   1.000000
   85       -1.765454   1.000000
   86       -1.737219   1.000000
   87       -1.704572   1.000000
   88       -1.619818   1.000000
   89       -1.606708   1.000000
   90       -1.577238   1.000000
   91       -1.559768   1.000000
   92       -1.538976   1.000000
   93       -1.516499   1.000000
   94       -1.495556   1.000000
   95       -1.486575   1.000000
   96       -1.470141   1.000000
   97       -1.445665   1.000000
   98       -1.426104   1.000000
   99       -1.406769   1.000000
  100       -1.376819   1.000000
  101       -1.367639   1.000000
  102       -1.358798   1.000000
  103       -1.325808   1.000000
  104       -1.299380   1.000000
  105       -1.277188   1.000000
  106       -1.207044   1.000000
  107       -1.205620   1.000000
  108       -1.201041   1.000000
  109       -1.186910   1.000000
  110       -1.159513   1.000000
  111       -1.120236   1.000000
  112       -1.064128   1.000000
  113       -0.961750   1.000000
  114       -0.882616   1.000000
  115       -0.840755   1.000000
  116       -0.815090   1.000000
  117       -0.774275   1.000000
  118       -0.700615   1.000000
  119       -0.688549   1.000000
  120       -0.621621   1.000000
  121       -0.609392   1.000000
  122       -0.595261   1.000000
  123       -0.564548   1.000000
  124       -0.555448   1.000000
  125       -0.478286   1.000000
  126       -0.459524   1.000000
  127       -0.426819   1.000000
  128       -0.393341   1.000000
  129       -0.338919   1.000000
  130       -0.286942   1.000000
  131       -0.199789   1.000000
  132       -0.189762   1.000000
  133       -0.141451   1.000000
  134       -0.089377   1.000000
  135       -0.047407   1.000000
  136       -0.036686   1.000000
  137       -0.025582   1.000000
  138       -0.021754   1.000000
  139        0.000447   1.000000
  140        0.037435   0.999999
  141        0.074365   0.999999
  142        0.089477   0.999999
  143        0.135449   0.999999
  144        0.199363   0.999997
  145        0.215161   0.999997
  146        0.276596   0.999994
  147        0.285855   0.999993
  148        0.324355   0.999990
  149        0.344058   0.999988
  150        0.354219   0.999987
  151        0.403927   0.999978
  152        0.425946   0.999973
  153        0.528429   0.999924
  154        0.539221   0.999915
  155        0.561676   0.999894
  156        0.573864   0.999880
  157        0.590022   0.999859
  158        0.620972   0.999807
  159        0.627110   0.999795
  160        0.657588   0.999722
  161        0.693067   0.999604
  162        0.699747   0.999577
  163        0.735223   0.999397
  164        0.741629   0.999357
  165        0.773762   0.999113
  166        0.798148   0.998869
  167        0.811283   0.998710
  168        0.838257   0.998311
  169        0.861621   0.997868
  170        0.869605   0.997691
  171        0.889606   0.997181
  172        0.907614   0.996627
  173        0.925181   0.995982
  174        0.931811   0.995707
  175        0.950765   0.994816
  176        0.965048   0.994025
  177        1.000873   0.991473
  178        1.016561   0.990039
  179        1.057896   0.985016
  180        1.079213   0.981522
  181        1.110803   0.974830
  182        1.120860   0.972241
  183        1.141665   0.966039
  184        1.168015   0.956249
  185        1.179407   0.951228
  186        1.191545   0.945278
  187        1.216628   0.930757
  188        1.229301   0.922130
  189        1.257726   0.899112
  190        1.261110   0.896001
  191        1.273476   0.883900
  192        1.296962   0.857543
  193        1.304931   0.847528
  194        1.411727   0.656420
  195        1.493395   0.457777
  196        1.501994   0.436523
  197        1.528850   0.371953
  198        1.540937   0.344181
  199        1.554353   0.314562
  200        1.593980   0.235927
  201        1.819983   0.031214
  202        1.894742   0.015027
  203        2.089359   0.002174
  204        2.232503   0.000520
  205        2.371338   0.000130
  206        2.444163   0.000063
  207        2.539735   0.000024
  208        3.260436   0.000000
  209        3.613292   0.000000
  210        4.136439   0.000000
  211        4.488987   0.000000
  212        4.670967   0.000000
  213        4.854549   0.000000
  214        5.212261   0.000000
  215        5.367550   0.000000
  216        5.740651   0.000000
  217        5.811988   0.000000
  218        5.916278   0.000000
  219        6.243508   0.000000
  220        6.317916   0.000000
  221        6.447070   0.000000
  222        6.659486   0.000000
  223        6.719292   0.000000
  224        6.751140   0.000000
  225        6.889577   0.000000
 
 -0.8333333E-01  0.0000000E+00  0.0000000E+00  0.1851852E-01
    1      -13.104355   1.000000
    2       -8.833099   1.000000
    3       -7.747579   1.000000
    4       -6.496548   1.000000
    5       -5.879253   1.000000
    6       -5.487061   1.000000
    7       -5.382563   1.000000
    8       -5.339253   1.000000
    9       -5.297395   1.000000
   10       -5.251496   1.000000
   11       -5.229909   1.000000
   12       -5.178337   1.000000
   13       -5.145954   1.000000
   14       -5.028231   1.000000
   15       -4.738779   1.000000
   16       -4.708933   1.000000
   17       -4.678350   1.000000
   18       -4.672170   1.000000
   19       -4.663046   1.000000
   20       -4.636562   1.000000
   21       -4.418842   1.000000
   22       -4.223720   1.000000
   23       -4.201489   1.000000
   24       -4.190655   1.000000
   25       -4.158229   1.000000
   26       -4.129240   1.000000
   27       -4.063358   1.000000
   28       -4.044560   1.000000
   29       -4.010098   1.000000
   30       -3.946641   1.000000
   31       -3.883413   1.000000
   32       -3.867024   1.000000
   33       -3.829267   1.000000
   34       -3.801160   1.000000
   35       -3.792111   1.000000
   36       -3.779038   1.000000
   37       -3.744833   1.000000
   38       -3.730353   1.000000
   39       -3.719550   1.000000
   40       -3.712303   1.000000
   41       -3.663213   1.000000
   42       -3.608348   1.000000
   43       -3.550070   1.000000
   44       -3.537211   1.000000
   45       -3.382034   1.000000
   46       -3.189760   1.000000
   47       -3.146218   1.000000
   48       -3.111205   1.000000
   49       -3.103708   1.000000
   50       -3.086025   1.000000
   51       -3.067413   1.000000
   52       -3.027173   1.000000
   53       -2.973794   1.000000
   54       -2.950208   1.000000
   55       -2.853866   1.000000
   56       -2.847463   1.000000
   57       -2.822504   1.000000
   58       -2.785119   1.000000
   59       -2.771243   1.000000
   60       -2.395520   1.000000
   61       -2.345145   1.000000
   62       -2.304335   1.000000
   63       -2.253025   1.000000
   64       -2.219785   1.000000
   65       -2.208478   1.000000
   66       -2.191109   1.000000
   67       -2.162852   1.000000
   68       -2.134692   1.000000
   69       -2.127030   1.000000
   70       -2.112062   1.000000
   71       -2.091722   1.000000
   72       -2.079813   1.000000
   73       -2.034224   1.000000
   74       -2.019612   1.000000
   75       -2.003052   1.000000
   76       -1.968855   1.000000
   77       -1.952370   1.000000
   78       -1.923768   1.000000
   79       -1.911495   1.000000
   80       -1.894296   1.000000
   81       -1.874024   1.000000
   82       -1.846251   1.000000
   83       -1.821308   1.000000
   84       -1.794551   1.000000
   85       -1.762554   1.000000
   86       -1.737597   1.000000
   87       -1.712156   1.000000
   88       -1.620365   1.000000
   89       -1.602073   1.000000
   90       -1.581298   1.000000
   91       -1.564362   1.000000
   92       -1.540832   1.000000
   93       -1.516922   1.000000
   94       -1.497762   1.000000
   95       -1.486896   1.000000
   96       -1.461706   1.000000
   97       -1.442594   1.000000
   98       -1.426237   1.000000
   99       -1.405284   1.000000
  100       -1.375533   1.000000
  101       -1.368744   1.000000
  102       -1.360891   1.000000
  103       -1.327395   1.000000
  104       -1.296298   1.000000
  105       -1.279668   1.000000
  106       -1.207654   1.000000
  107       -1.205666   1.000000
  108       -1.202148   1.000000
  109       -1.190820   1.000000
  110       -1.155381   1.000000
  111       -1.118358   1.000000
  112       -1.062608   1.000000
  113       -0.963320   1.000000
  114       -0.882336   1.000000
  115       -0.843471   1.000000
  116       -0.815632   1.000000
  117       -0.775356   1.000000
  118       -0.699753   1.000000
  119       -0.688637   1.000000
  120       -0.623448   1.000000
  121       -0.609132   1.000000
  122       -0.595734   1.000000
  123       -0.561247   1.000000
  124       -0.556299   1.000000
  125       -0.480781   1.000000
  126       -0.454148   1.000000
  127       -0.428725   1.000000
  128       -0.387286   1.000000
  129       -0.338427   1.000000
  130       -0.288169   1.000000
  131       -0.200371   1.000000
  132       -0.188163   1.000000
  133       -0.139421   1.000000
  134       -0.086609   1.000000
  135       -0.058508   1.000000
  136       -0.039172   1.000000
  137       -0.028104   1.000000
  138       -0.007104   1.000000
  139        0.002102   1.000000
  140        0.035543   0.999999
  141        0.077669   0.999999
  142        0.091287   0.999999
  143        0.135096   0.999999
  144        0.201099   0.999997
  145        0.214390   0.999997
  146        0.276608   0.999994
  147        0.286356   0.999993
  148        0.322684   0.999990
  149        0.344515   0.999988
  150        0.351037   0.999987
  151        0.402394   0.999978
  152        0.425020   0.999973
  153        0.525936   0.999926
  154        0.540166   0.999914
  155        0.560533   0.999895
  156        0.573126   0.999881
  157        0.589570   0.999859
  158        0.619558   0.999810
  159        0.627241   0.999795
  160        0.657887   0.999721
  161        0.694857   0.999597
  162        0.701544   0.999569
  163        0.734168   0.999403
  164        0.740908   0.999361
  165        0.772883   0.999121
  166        0.800060   0.998847
  167        0.811148   0.998712
  168        0.837804   0.998319
  169        0.860533   0.997891
  170        0.870212   0.997677
  171        0.890691   0.997150
  172        0.909477   0.996564
  173        0.921743   0.996117
  174        0.929313   0.995813
  175        0.948866   0.994913
  176        0.965292   0.994010
  177        1.004818   0.991133
  178        1.014856   0.990206
  179        1.057373   0.985093
  180        1.077404   0.981847
  181        1.110461   0.974914
  182        1.121989   0.971935
  183        1.139989   0.966585
  184        1.166415   0.956913
  185        1.183268   0.949405
  186        1.194042   0.943971
  187        1.215954   0.931190
  188        1.236402   0.916876
  189        1.259057   0.897898
  190        1.266276   0.891087
  191        1.273571   0.883803
  192        1.293846   0.861307
  193        1.303360   0.849547
  194        1.403304   0.675160
  195        1.495976   0.451378
  196        1.507265   0.423603
  197        1.522159   0.387712
  198        1.539695   0.346990
  199        1.552624   0.318302
  200        1.590024   0.243132
  201        1.821249   0.030834
  202        1.895866   0.014862
  203        2.087697   0.002211
  204        2.231443   0.000526
  205        2.371113   0.000130
  206        2.443181   0.000063
  207        2.543926   0.000023
  208        3.260910   0.000000
  209        3.613796   0.000000
  210        4.136103   0.000000
  211        4.491720   0.000000
  212        4.663510   0.000000
  213        4.856402   0.000000
  214        5.213644   0.000000
  215        5.367927   0.000000
  216        5.741637   0.000000
  217        5.813714   0.000000
  218        5.918102   0.000000
  219        6.238863   0.000000
  220        6.313376   0.000000
  221        6.444983   0.000000
  222        6.669320   0.000000
  223        6.728698   0.000000
  224        6.748540   0.000000
  225        6.958353   0.000000
 
  0.2500000E+00  0.8333333E-01  0.0000000E+00  0.1851852E-01
    1      -13.103860   1.000000
    2       -8.832792   1.000000
    3       -7.591921   1.000000
    4       -6.356026   1.000000
    5       -5.892124   1.000000
    6       -5.789106   1.000000
    7       -5.624635   1.000000
    8       -5.290136   1.000000
    9       -5.175317   1.000000
   10       -5.142284   1.000000
   11       -5.096554   1.000000
   12       -5.030296   1.000000
   13       -4.998834   1.000000
   14       -4.967954   1.000000
   15       -4.798985   1.000000
   16       -4.766129   1.000000
   17       -4.731594   1.000000
   18       -4.668996   1.000000
   19       -4.533579   1.000000
   20       -4.518631   1.000000
   21       -4.385809   1.000000
   22       -4.273840   1.000000
   23       -4.195781   1.000000
   24       -4.153786   1.000000
   25       -4.100150   1.000000
   26       -4.092596   1.000000
   27       -4.081274   1.000000
   28       -4.031669   1.000000
   29       -4.006825   1.000000
   30       -3.968219   1.000000
   31       -3.944655   1.000000
   32       -3.921759   1.000000
   33       -3.901306   1.000000
   34       -3.882937   1.000000
   35       -3.846813   1.000000
   36       -3.804997   1.000000
   37       -3.760740   1.000000
   38       -3.735503   1.000000
   39       -3.600594   1.000000
   40       -3.563940   1.000000
   41       -3.525319   1.000000
   42       -3.515998   1.000000
   43       -3.476595   1.000000
   44       -3.447977   1.000000
   45       -3.369483   1.000000
   46       -3.270089   1.000000
   47       -3.212544   1.000000
   48       -3.179125   1.000000
   49       -3.150038   1.000000
   50       -3.122923   1.000000
   51       -3.085866   1.000000
   52       -3.023167   1.000000
   53       -2.943724   1.000000
   54       -2.890446   1.000000
   55       -2.858996   1.000000
   56       -2.828906   1.000000
   57       -2.817912   1.000000
   58       -2.778720   1.000000
   59       -2.731663   1.000000
   60       -2.592265   1.000000
   61       -2.554140   1.000000
   62       -2.451219   1.000000
   63       -2.383889   1.000000
   64       -2.356893   1.000000
   65       -2.330015   1.000000
   66       -2.304705   1.000000
   67       -2.269613   1.000000
   68       -2.233487   1.000000
   69       -2.212671   1.000000
   70       -2.193424   1.000000
   71       -2.147551   1.000000
   72       -2.113777   1.000000
   73       -2.091127   1.000000
   74       -2.077103   1.000000
   75       -2.045632   1.000000
   76       -2.022038   1.000000
   77       -2.009824   1.000000
   78       -1.972869   1.000000
   79       -1.888081   1.000000
   80       -1.859111   1.000000
   81       -1.843152   1.000000
   82       -1.818573   1.000000
   83       -1.789912   1.000000
   84       -1.777831   1.000000
   85       -1.750308   1.000000
   86       -1.728974   1.000000
   87       -1.696068   1.000000
   88       -1.667349   1.000000
   89       -1.643995   1.000000
   90       -1.626201   1.000000
   91       -1.594931   1.000000
   92       -1.580644   1.000000
   93       -1.556887   1.000000
   94       -1.545767   1.000000
   95       -1.533740   1.000000
   96       -1.504630   1.000000
   97       -1.484209   1.000000
   98       -1.461995   1.000000
   99       -1.444099   1.000000
  100       -1.418289   1.000000
  101       -1.397963   1.000000
  102       -1.357962   1.000000
  103       -1.334484   1.000000
  104       -1.305850   1.000000
  105       -1.292034   1.000000
  106       -1.261827   1.000000
  107       -1.254857   1.000000
  108       -1.214949   1.000000
  109       -1.166468   1.000000
  110       -1.151639   1.000000
  111       -1.138042   1.000000
  112       -1.099613   1.000000
  113       -1.090679   1.000000
  114       -1.027446   1.000000
  115       -0.990639   1.000000
  116       -0.963555   1.000000
  117       -0.899325   1.000000
  118       -0.860906   1.000000
  119       -0.837167   1.000000
  120       -0.774360   1.000000
  121       -0.688416   1.000000
  122       -0.647721   1.000000
  123       -0.601209   1.000000
  124       -0.581361   1.000000
  125       -0.563310   1.000000
  126       -0.551271   1.000000
  127       -0.501721   1.000000
  128       -0.436552   1.000000
  129       -0.411882   1.000000
  130       -0.351295   1.000000
  131       -0.327916   1.000000
  132       -0.275372   1.000000
  133       -0.161271   1.000000
  134       -0.152668   1.000000
  135       -0.125612   1.000000
  136       -0.095133   1.000000
  137       -0.078078   1.000000
  138       -0.037708   1.000000
  139        0.003755   1.000000
  140        0.016268   1.000000
  141        0.035769   0.999999
  142        0.092151   0.999999
  143        0.140941   0.999998
  144        0.199075   0.999997
  145        0.220870   0.999996
  146        0.227531   0.999996
  147        0.245010   0.999996
  148        0.253391   0.999995
  149        0.297361   0.999992
  150        0.314672   0.999991
  151        0.347724   0.999987
  152        0.354826   0.999987
  153        0.387051   0.999981
  154        0.429008   0.999972
  155        0.439613   0.999969
  156        0.482935   0.999952
  157        0.505131   0.999940
  158        0.530224   0.999922
  159        0.567872   0.999887
  160        0.586747   0.999863
  161        0.636157   0.999776
  162        0.703677   0.999560
  163        0.742812   0.999349
  164        0.777027   0.999084
  165        0.848627   0.998127
  166        0.861196   0.997877
  167        0.881352   0.997404
  168        0.920014   0.996183
  169        0.938448   0.995414
  170        0.945559   0.995078
  171        0.994545   0.991991
  172        1.027517   0.988898
  173        1.081781   0.981050
  174        1.102578   0.976772
  175        1.115656   0.973612
  176        1.146862   0.964293
  177        1.187806   0.947180
  178        1.196743   0.942526
  179        1.233580   0.919001
  180        1.247817   0.907752
  181        1.275782   0.881513
  182        1.294419   0.860622
  183        1.320768   0.825919
  184        1.344313   0.789435
  185        1.360300   0.761633
  186        1.399207   0.684079
  187        1.413047   0.653437
  188        1.441732   0.585970
  189        1.465471   0.527458
  190        1.478216   0.495624
  191        1.506946   0.424384
  192        1.522757   0.386295
  193        1.575415   0.271011
  194        1.602398   0.221090
  195        1.626610   0.182210
  196        1.673773   0.122059
  197        1.699121   0.097391
  198        1.736204   0.069307
  199        1.785192   0.043636
  200        1.949871   0.008714
  201        1.969075   0.007203
  202        2.030060   0.003927
  203        2.231500   0.000526
  204        2.452961   0.000057
  205        2.721887   0.000004
  206        2.996111   0.000000
  207        3.073356   0.000000
  208        3.301839   0.000000
  209        3.608064   0.000000
  210        4.040086   0.000000
  211        4.391881   0.000000
  212        4.697874   0.000000
  213        4.858955   0.000000
  214        5.078177   0.000000
  215        5.357614   0.000000
  216        5.479934   0.000000
  217        5.576942   0.000000
  218        5.835917   0.000000
  219        5.939171   0.000000
  220        6.109672   0.000000