unknown system                          
           1
     8.421642    0.000000    0.000000
     4.210821    7.293356    0.000000
     0.000000    0.000000   21.876242
   Pt   C    H 
  36   2   3
Direct configuration=     1
   0.00000000  0.00000000  0.34283768
   0.33333333  0.00000000  0.34283768
   0.66666667  0.00000000  0.34283768
   0.00000000  0.33333333  0.34283768
   0.33333333  0.33333333  0.34283768
   0.66666667  0.33333333  0.34283768
   0.00000000  0.66666667  0.34283768
   0.33333333  0.66666667  0.34283768
   0.66666667  0.66666667  0.34283768
   0.11111111  0.11111111  0.44761256
   0.44444444  0.11111111  0.44761256
   0.77777778  0.11111111  0.44761256
   0.11111111  0.44444444  0.44761256
   0.44444444  0.44444444  0.44761256
   0.77777778  0.44444444  0.44761256
   0.11111111  0.77777778  0.44761256
   0.44444444  0.77777778  0.44761256
   0.77777778  0.77777778  0.44761256
   0.88790222  0.22121765  0.55213218
   0.22358615  0.22081049  0.55197618
   0.55640685  0.21988459  0.55223492
   0.88990368  0.55329080  0.55132647
   0.22395618  0.55048403  0.55254880
   0.55769119  0.55138906  0.55206664
   0.88721118  0.88748435  0.55258314
   0.22266797  0.88596527  0.54973665
   0.55756456  0.88701746  0.55189827
   0.00390818  0.99421236  0.65572891
   0.33242872  0.99195314  0.65497058
   0.66680215  0.99803322  0.66273322
   0.00384358  0.32912564  0.65670864
   0.33739996  0.32656769  0.66286060
   0.67347341  0.33383433  0.66170596
   0.00243905  0.66215710  0.65684742
   0.33398374  0.66376386  0.65568232
   0.66943695  0.66381797  0.65655716
   0.52119926  0.18128566  0.73155188
   0.61785212  0.27910450  0.75001914
   0.46771759  0.12489046  0.76608797
   0.53217288  0.41018857  0.77374261
   0.74795166  0.19438634  0.77434508
