       N       E                     dE             d eps       ncg     rms          rms(c)
DAV:   1     0.432541039802E+02    0.43254E+02   -0.23148E+03    40   0.345E+02
DAV:   2    -0.244091577237E+02   -0.67663E+02   -0.67280E+02    32   0.103E+02
DAV:   3    -0.357175062716E+02   -0.11308E+02   -0.11301E+02    32   0.484E+01
DAV:   4    -0.360874294779E+02   -0.36992E+00   -0.36989E+00    48   0.121E+01    0.977E+00
RMM:   5    -0.328113252519E+02    0.32761E+01   -0.54895E+00    35   0.115E+01    0.518E+00
RMM:   6    -0.320712148849E+02    0.74011E+00   -0.27229E+00    35   0.772E+00    0.222E+00
RMM:   7    -0.319671896942E+02    0.10403E+00   -0.18966E-01    33   0.244E+00    0.230E-01
RMM:   8    -0.319614717636E+02    0.57179E-02   -0.17047E-02    36   0.648E-01    0.175E-01
RMM:   9    -0.319576472679E+02    0.38245E-02   -0.12576E-02    28   0.486E-01    0.146E-01
RMM:  10    -0.319587448331E+02   -0.10976E-02   -0.22612E-03    34   0.253E-01    0.660E-02
RMM:  11    -0.319646427441E+02   -0.58979E-02   -0.15196E-03    28   0.156E-01    0.302E-02
RMM:  12    -0.319661967097E+02   -0.15540E-02   -0.66914E-04    35   0.106E-01    0.311E-02
RMM:  13    -0.319707006309E+02   -0.45039E-02   -0.18526E-03    27   0.195E-01    0.474E-02
RMM:  14    -0.319709670969E+02   -0.26647E-03   -0.20059E-04    35   0.630E-02    0.140E-02
RMM:  15    -0.319718350910E+02   -0.86799E-03   -0.34511E-04    26   0.792E-02    0.216E-02
RMM:  16    -0.319719250203E+02   -0.89929E-04   -0.45242E-05    32   0.308E-02    0.835E-03
RMM:  17    -0.319720849126E+02   -0.15989E-03   -0.34578E-05    30   0.277E-02    0.308E-03
RMM:  18    -0.319721173093E+02   -0.32397E-04   -0.17381E-06    29   0.752E-03    0.369E-03
RMM:  19    -0.319721565485E+02   -0.39239E-04   -0.18769E-06    26   0.661E-03    0.790E-04
RMM:  20    -0.319721650180E+02   -0.84695E-05   -0.72579E-07    28   0.493E-03    0.674E-04
RMM:  21    -0.319721693954E+02   -0.43774E-05   -0.14652E-07    25   0.255E-03    0.656E-04
RMM:  22    -0.319721709007E+02   -0.15054E-05   -0.96759E-09    19   0.135E-03    0.301E-04
RMM:  23    -0.319721714815E+02   -0.58079E-06   -0.14218E-07    24   0.195E-03
   1 F= -.31972171E+02 E0= -.31972171E+02  d E =-.136267E-09
