   39   39    1    1
  0.3445341E+02  0.8421642E-09  0.8421642E-09  0.2187624E-08  0.5000000E-15
  1.000000000000000E-004
  CAR 
 unknown system                          
    366     54    220
 
  0.8333333E-01  0.8333333E-01  0.0000000E+00  0.1851852E-01
    1      -10.974122   1.000000
    2       -7.921831   1.000000
    3       -6.616849   1.000000
    4       -5.660892   1.000000
    5       -5.582024   1.000000
    6       -5.533372   1.000000
    7       -5.527841   1.000000
    8       -5.440476   1.000000
    9       -5.386438   1.000000
   10       -5.369886   1.000000
   11       -5.333690   1.000000
   12       -5.189520   1.000000
   13       -4.996420   1.000000
   14       -4.889349   1.000000
   15       -4.881609   1.000000
   16       -4.865515   1.000000
   17       -4.837667   1.000000
   18       -4.804436   1.000000
   19       -4.702305   1.000000
   20       -4.394953   1.000000
   21       -4.390504   1.000000
   22       -4.363189   1.000000
   23       -4.355154   1.000000
   24       -4.312841   1.000000
   25       -4.272170   1.000000
   26       -4.203047   1.000000
   27       -4.167706   1.000000
   28       -4.124731   1.000000
   29       -4.085812   1.000000
   30       -4.059082   1.000000
   31       -4.004553   1.000000
   32       -3.986816   1.000000
   33       -3.959770   1.000000
   34       -3.944600   1.000000
   35       -3.918680   1.000000
   36       -3.894663   1.000000
   37       -3.888946   1.000000
   38       -3.855967   1.000000
   39       -3.847548   1.000000
   40       -3.761452   1.000000
   41       -3.754875   1.000000
   42       -3.706047   1.000000
   43       -3.430259   1.000000
   44       -3.364277   1.000000
   45       -3.298913   1.000000
   46       -3.295327   1.000000
   47       -3.270564   1.000000
   48       -3.257916   1.000000
   49       -3.252074   1.000000
   50       -3.160144   1.000000
   51       -3.155399   1.000000
   52       -3.109122   1.000000
   53       -3.033217   1.000000
   54       -3.017732   1.000000
   55       -2.978360   1.000000
   56       -2.966787   1.000000
   57       -2.910152   1.000000
   58       -2.565235   1.000000
   59       -2.463053   1.000000
   60       -2.427519   1.000000
   61       -2.409403   1.000000
   62       -2.390786   1.000000
   63       -2.361227   1.000000
   64       -2.345458   1.000000
   65       -2.341849   1.000000
   66       -2.308612   1.000000
   67       -2.300698   1.000000
   68       -2.283668   1.000000
   69       -2.251144   1.000000
   70       -2.230652   1.000000
   71       -2.228973   1.000000
   72       -2.187335   1.000000
   73       -2.170898   1.000000
   74       -2.147807   1.000000
   75       -2.128545   1.000000
   76       -2.096416   1.000000
   77       -2.075484   1.000000
   78       -2.051520   1.000000
   79       -2.044501   1.000000
   80       -2.019748   1.000000
   81       -1.981632   1.000000
   82       -1.936595   1.000000
   83       -1.917407   1.000000
   84       -1.899714   1.000000
   85       -1.864861   1.000000
   86       -1.812796   1.000000
   87       -1.772777   1.000000
   88       -1.755943   1.000000
   89       -1.736785   1.000000
   90       -1.705126   1.000000
   91       -1.696264   1.000000
   92       -1.685878   1.000000
   93       -1.661460   1.000000
   94       -1.649514   1.000000
   95       -1.606297   1.000000
   96       -1.574303   1.000000
   97       -1.563691   1.000000
   98       -1.560924   1.000000
   99       -1.523067   1.000000
  100       -1.510772   1.000000
  101       -1.426934   1.000000
  102       -1.401527   1.000000
  103       -1.397895   1.000000
  104       -1.376788   1.000000
  105       -1.374277   1.000000
  106       -1.362196   1.000000
  107       -1.346772   1.000000
  108       -1.311093   1.000000
  109       -1.227271   1.000000
  110       -1.217093   1.000000
  111       -1.148946   1.000000
  112       -1.041874   1.000000
  113       -1.030758   1.000000
  114       -0.933546   1.000000
  115       -0.894945   1.000000
  116       -0.874283   1.000000
  117       -0.788764   1.000000
  118       -0.765178   1.000000
  119       -0.760144   1.000000
  120       -0.749504   1.000000
  121       -0.738072   1.000000
  122       -0.685483   1.000000
  123       -0.681902   1.000000
  124       -0.642186   1.000000
  125       -0.607672   1.000000
  126       -0.557461   1.000000
  127       -0.454950   1.000000
  128       -0.379475   1.000000
  129       -0.327614   1.000000
  130       -0.301095   1.000000
  131       -0.275026   1.000000
  132       -0.220181   1.000000
  133       -0.207589   1.000000
  134       -0.203220   1.000000
  135       -0.195407   1.000000
  136       -0.171936   1.000000
  137       -0.108258   0.999999
  138       -0.084202   0.999999
  139       -0.064920   0.999999
  140       -0.003169   0.999998
  141        0.029738   0.999997
  142        0.059825   0.999996
  143        0.089687   0.999995
  144        0.123309   0.999993
  145        0.141553   0.999991
  146        0.160187   0.999989
  147        0.193715   0.999985
  148        0.222336   0.999980
  149        0.263964   0.999970
  150        0.351622   0.999928
  151        0.353963   0.999926
  152        0.374243   0.999909
  153        0.388580   0.999895
  154        0.431644   0.999839
  155        0.436491   0.999831
  156        0.464074   0.999777
  157        0.494780   0.999697
  158        0.523271   0.999598
  159        0.530725   0.999566
  160        0.551628   0.999466
  161        0.574502   0.999329
  162        0.609834   0.999044
  163        0.632024   0.998807
  164        0.635806   0.998761
  165        0.657949   0.998455
  166        0.684634   0.997983
  167        0.696473   0.997730
  168        0.717046   0.997213
  169        0.719786   0.997136
  170        0.750940   0.996093
  171        0.784881   0.994522
  172        0.788156   0.994341
  173        0.809235   0.993022
  174        0.815257   0.992592
  175        0.839966   0.990536
  176        0.876574   0.986409
  177        0.888598   0.984699
  178        0.928992   0.977256
  179        0.970120   0.966078
  180        0.978540   0.963208
  181        0.993806   0.957399
  182        1.022981   0.943778
  183        1.023787   0.943349
  184        1.054510   0.924512
  185        1.073764   0.909927
  186        1.080658   0.904115
  187        1.090137   0.895577
  188        1.100294   0.885690
  189        1.125316   0.857811
  190        1.129709   0.852368
  191        1.156887   0.814802
  192        1.227826   0.683982
  193        1.329638   0.438811
  194        1.352261   0.384091
  195        1.353968   0.380061
  196        1.392174   0.294972
  197        1.394770   0.289603
  198        1.427881   0.226457
  199        1.696078   0.019639
  200        1.838294   0.004808
  201        2.026964   0.000732
  202        2.159904   0.000194
  203        2.255354   0.000075
  204        2.344212   0.000031
  205        2.440513   0.000012
  206        3.149451   0.000000
  207        3.876030   0.000000
  208        4.299531   0.000000
  209        4.561714   0.000000
  210        4.572796   0.000000
  211        4.754625   0.000000
  212        5.163524   0.000000
  213        5.446141   0.000000
  214        5.615976   0.000000
  215        5.765577   0.000000
  216        6.108258   0.000000
  217        6.126977   0.000000
  218        6.405880   0.000000
  219        6.534067   0.000000
  220        6.693088   0.000000
 
  0.0000000E+00  0.8333333E-01  0.0000000E+00  0.1851852E-01
    1      -10.973955   1.000000
    2       -7.921848   1.000000
    3       -6.616646   1.000000
    4       -5.653171   1.000000
    5       -5.594608   1.000000
    6       -5.532248   1.000000
    7       -5.522048   1.000000
    8       -5.440412   1.000000
    9       -5.387072   1.000000
   10       -5.365874   1.000000
   11       -5.338402   1.000000
   12       -5.191475   1.000000
   13       -4.972807   1.000000
   14       -4.910063   1.000000
   15       -4.887103   1.000000
   16       -4.851788   1.000000
   17       -4.844163   1.000000
   18       -4.815176   1.000000
   19       -4.686204   1.000000
   20       -4.403494   1.000000
   21       -4.383531   1.000000
   22       -4.370984   1.000000
   23       -4.353494   1.000000
   24       -4.318293   1.000000
   25       -4.238604   1.000000
   26       -4.231004   1.000000
   27       -4.177758   1.000000
   28       -4.126973   1.000000
   29       -4.067841   1.000000
   30       -4.033512   1.000000
   31       -4.002573   1.000000
   32       -3.989449   1.000000
   33       -3.971043   1.000000
   34       -3.954261   1.000000
   35       -3.922589   1.000000
   36       -3.906246   1.000000
   37       -3.895592   1.000000
   38       -3.883669   1.000000
   39       -3.827171   1.000000
   40       -3.755143   1.000000
   41       -3.745059   1.000000
   42       -3.708901   1.000000
   43       -3.452770   1.000000
   44       -3.345472   1.000000
   45       -3.303393   1.000000
   46       -3.292955   1.000000
   47       -3.270326   1.000000
   48       -3.256514   1.000000
   49       -3.235905   1.000000
   50       -3.186762   1.000000
   51       -3.137858   1.000000
   52       -3.103525   1.000000
   53       -3.042399   1.000000
   54       -3.025233   1.000000
   55       -2.976326   1.000000
   56       -2.957305   1.000000
   57       -2.924790   1.000000
   58       -2.562604   1.000000
   59       -2.469020   1.000000
   60       -2.427927   1.000000
   61       -2.416981   1.000000
   62       -2.380480   1.000000
   63       -2.367912   1.000000
   64       -2.339008   1.000000
   65       -2.325183   1.000000
   66       -2.315874   1.000000
   67       -2.295394   1.000000
   68       -2.287849   1.000000
   69       -2.264066   1.000000
   70       -2.248803   1.000000
   71       -2.203731   1.000000
   72       -2.187537   1.000000
   73       -2.175539   1.000000
   74       -2.144174   1.000000
   75       -2.129538   1.000000
   76       -2.100225   1.000000
   77       -2.075077   1.000000
   78       -2.053280   1.000000
   79       -2.031260   1.000000
   80       -2.017441   1.000000
   81       -1.979041   1.000000
   82       -1.963962   1.000000
   83       -1.915161   1.000000
   84       -1.901444   1.000000
   85       -1.881951   1.000000
   86       -1.794160   1.000000
   87       -1.776893   1.000000
   88       -1.756682   1.000000
   89       -1.735543   1.000000
   90       -1.723719   1.000000
   91       -1.693145   1.000000
   92       -1.682443   1.000000
   93       -1.644310   1.000000
   94       -1.634688   1.000000
   95       -1.607106   1.000000
   96       -1.594499   1.000000
   97       -1.570881   1.000000
   98       -1.543231   1.000000
   99       -1.525885   1.000000
  100       -1.507668   1.000000
  101       -1.426418   1.000000
  102       -1.398055   1.000000
  103       -1.384635   1.000000
  104       -1.376878   1.000000
  105       -1.373836   1.000000
  106       -1.355821   1.000000
  107       -1.348708   1.000000
  108       -1.308673   1.000000
  109       -1.260828   1.000000
  110       -1.231259   1.000000
  111       -1.145968   1.000000
  112       -1.059143   1.000000
  113       -0.989162   1.000000
  114       -0.944241   1.000000
  115       -0.873299   1.000000
  116       -0.841879   1.000000
  117       -0.817929   1.000000
  118       -0.783325   1.000000
  119       -0.767923   1.000000
  120       -0.746111   1.000000
  121       -0.727321   1.000000
  122       -0.714205   1.000000
  123       -0.646018   1.000000
  124       -0.618347   1.000000
  125       -0.571838   1.000000
  126       -0.522336   1.000000
  127       -0.469136   1.000000
  128       -0.372164   1.000000
  129       -0.325772   1.000000
  130       -0.310595   1.000000
  131       -0.238414   1.000000
  132       -0.220122   1.000000
  133       -0.206989   1.000000
  134       -0.195563   1.000000
  135       -0.190634   1.000000
  136       -0.173115   1.000000
  137       -0.133647   0.999999
  138       -0.103830   0.999999
  139       -0.068501   0.999999
  140       -0.043370   0.999999
  141        0.023712   0.999997
  142        0.049883   0.999996
  143        0.084615   0.999995
  144        0.125344   0.999992
  145        0.136567   0.999992
  146        0.154870   0.999990
  147        0.186523   0.999986
  148        0.233388   0.999978
  149        0.263980   0.999970
  150        0.347604   0.999931
  151        0.363526   0.999919
  152        0.381245   0.999903
  153        0.398060   0.999885
  154        0.419453   0.999857
  155        0.438892   0.999827
  156        0.472017   0.999759
  157        0.503605   0.999669
  158        0.524056   0.999594
  159        0.546168   0.999494
  160        0.555100   0.999447
  161        0.568687   0.999366
  162        0.585920   0.999247
  163        0.627214   0.998863
  164        0.647555   0.998607
  165        0.662986   0.998375
  166        0.692848   0.997811
  167        0.707238   0.997473
  168        0.717846   0.997190
  169        0.735611   0.996646
  170        0.745356   0.996304
  171        0.764812   0.995514
  172        0.778305   0.994869
  173        0.795128   0.993935
  174        0.808850   0.993049
  175        0.835911   0.990908
  176        0.866616   0.987681
  177        0.896928   0.983392
  178        0.937786   0.975218
  179        0.950194   0.972035
  180        0.971740   0.965543
  181        0.994492   0.957118
  182        1.010714   0.949943
  183        1.020496   0.945082
  184        1.049697   0.927803
  185        1.062240   0.918937
  186        1.087064   0.898416
  187        1.099344   0.886648
  188        1.106199   0.879574
  189        1.123291   0.860263
  190        1.131586   0.849991
  191        1.160001   0.810056
  192        1.249190   0.636102
  193        1.323960   0.452837
  194        1.338052   0.418209
  195        1.377257   0.326913
  196        1.381787   0.317024
  197        1.395801   0.287486
  198        1.425586   0.230504
  199        1.654334   0.029513
  200        1.876963   0.003271
  201        2.056546   0.000545
  202        2.138393   0.000240
  203        2.234067   0.000092
  204        2.358222   0.000027
  205        2.437651   0.000012
  206        3.129599   0.000000
  207        3.941306   0.000000
  208        4.307811   0.000000
  209        4.427237   0.000000
  210        4.604246   0.000000
  211        4.817141   0.000000
  212        5.115965   0.000000
  213        5.508374   0.000000
  214        5.624130   0.000000
  215        5.718408   0.000000
  216        6.103773   0.000000
  217        6.154163   0.000000
  218        6.450514   0.000000
  219        6.485460   0.000000
  220        6.813037   0.000000
 
 -0.8333333E-01  0.0000000E+00  0.0000000E+00  0.1851852E-01
    1      -10.973955   1.000000
    2       -7.921839   1.000000
    3       -6.616640   1.000000
    4       -5.650618   1.000000
    5       -5.594600   1.000000
    6       -5.534207   1.000000
    7       -5.522862   1.000000
    8       -5.440398   1.000000
    9       -5.388849   1.000000
   10       -5.366258   1.000000
   11       -5.336251   1.000000
   12       -5.191468   1.000000
   13       -4.972829   1.000000
   14       -4.910220   1.000000
   15       -4.887709   1.000000
   16       -4.851381   1.000000
   17       -4.843537   1.000000
   18       -4.814888   1.000000
   19       -4.686216   1.000000
   20       -4.403645   1.000000
   21       -4.383883   1.000000
   22       -4.371059   1.000000
   23       -4.353296   1.000000
   24       -4.318428   1.000000
   25       -4.238026   1.000000
   26       -4.231096   1.000000
   27       -4.178173   1.000000
   28       -4.126563   1.000000
   29       -4.068060   1.000000
   30       -4.032958   1.000000
   31       -4.001942   1.000000
   32       -3.988315   1.000000
   33       -3.970718   1.000000
   34       -3.952801   1.000000
   35       -3.924244   1.000000
   36       -3.908026   1.000000
   37       -3.896838   1.000000
   38       -3.884045   1.000000
   39       -3.827481   1.000000
   40       -3.754441   1.000000
   41       -3.744524   1.000000
   42       -3.708789   1.000000
   43       -3.452731   1.000000
   44       -3.345477   1.000000
   45       -3.303212   1.000000
   46       -3.291784   1.000000
   47       -3.271363   1.000000
   48       -3.257081   1.000000
   49       -3.236276   1.000000
   50       -3.186663   1.000000
   51       -3.138370   1.000000
   52       -3.103266   1.000000
   53       -3.043174   1.000000
   54       -3.024105   1.000000
   55       -2.976659   1.000000
   56       -2.957342   1.000000
   57       -2.924279   1.000000
   58       -2.562820   1.000000
   59       -2.470186   1.000000
   60       -2.429104   1.000000
   61       -2.418538   1.000000
   62       -2.381410   1.000000
   63       -2.368301   1.000000
   64       -2.338886   1.000000
   65       -2.322791   1.000000
   66       -2.315556   1.000000
   67       -2.295101   1.000000
   68       -2.287949   1.000000
   69       -2.263408   1.000000
   70       -2.248569   1.000000
   71       -2.204309   1.000000
   72       -2.188020   1.000000
   73       -2.175660   1.000000
   74       -2.144313   1.000000
   75       -2.128945   1.000000
   76       -2.101360   1.000000
   77       -2.075286   1.000000
   78       -2.053693   1.000000
   79       -2.032258   1.000000
   80       -2.016719   1.000000
   81       -1.973020   1.000000
   82       -1.960458   1.000000
   83       -1.914180   1.000000
   84       -1.905832   1.000000
   85       -1.885109   1.000000
   86       -1.794050   1.000000
   87       -1.775895   1.000000
   88       -1.758099   1.000000
   89       -1.736209   1.000000
   90       -1.724535   1.000000
   91       -1.692785   1.000000
   92       -1.681810   1.000000
   93       -1.643083   1.000000
   94       -1.633233   1.000000
   95       -1.606699   1.000000
   96       -1.594271   1.000000
   97       -1.570792   1.000000
   98       -1.543750   1.000000
   99       -1.526067   1.000000
  100       -1.508046   1.000000
  101       -1.427994   1.000000
  102       -1.400036   1.000000
  103       -1.383846   1.000000
  104       -1.376934   1.000000
  105       -1.373901   1.000000
  106       -1.355340   1.000000
  107       -1.346648   1.000000
  108       -1.309042   1.000000
  109       -1.258651   1.000000
  110       -1.231005   1.000000
  111       -1.149321   1.000000
  112       -1.058979   1.000000
  113       -0.989619   1.000000
  114       -0.944682   1.000000
  115       -0.873222   1.000000
  116       -0.841876   1.000000
  117       -0.818080   1.000000
  118       -0.783393   1.000000
  119       -0.767515   1.000000
  120       -0.745734   1.000000
  121       -0.727208   1.000000
  122       -0.713520   1.000000
  123       -0.644737   1.000000
  124       -0.618398   1.000000
  125       -0.570638   1.000000
  126       -0.522619   1.000000
  127       -0.469015   1.000000
  128       -0.371982   1.000000
  129       -0.326018   1.000000
  130       -0.310100   1.000000
  131       -0.240770   1.000000
  132       -0.218516   1.000000
  133       -0.205752   1.000000
  134       -0.196682   1.000000
  135       -0.190589   1.000000
  136       -0.172322   1.000000
  137       -0.133476   0.999999
  138       -0.102591   0.999999
  139       -0.068097   0.999999
  140       -0.042554   0.999999
  141        0.023316   0.999997
  142        0.049728   0.999996
  143        0.085232   0.999995
  144        0.126283   0.999992
  145        0.137861   0.999991
  146        0.151143   0.999990
  147        0.186391   0.999986
  148        0.232304   0.999978
  149        0.263945   0.999970
  150        0.346801   0.999931
  151        0.363128   0.999919
  152        0.380441   0.999904
  153        0.398363   0.999885
  154        0.419985   0.999857
  155        0.438166   0.999828
  156        0.472648   0.999757
  157        0.504857   0.999665
  158        0.523605   0.999596
  159        0.546381   0.999493
  160        0.555553   0.999444
  161        0.568956   0.999365
  162        0.585994   0.999247
  163        0.627004   0.998865
  164        0.646372   0.998623
  165        0.663505   0.998366
  166        0.692707   0.997814
  167        0.707247   0.997472
  168        0.717931   0.997188
  169        0.735481   0.996650
  170        0.743935   0.996356
  171        0.764968   0.995507
  172        0.778915   0.994838
  173        0.794107   0.993996
  174        0.807913   0.993113
  175        0.837008   0.990809
  176        0.866481   0.987698
  177        0.896638   0.983439
  178        0.937143   0.975373
  179        0.950369   0.971988
  180        0.971753   0.965539
  181        0.993546   0.957504
  182        1.012759   0.948962
  183        1.021224   0.944703
  184        1.049767   0.927756
  185        1.062983   0.918382
  186        1.087789   0.897753
  187        1.100039   0.885947
  188        1.106113   0.879665
  189        1.124310   0.859033
  190        1.131359   0.850280
  191        1.161492   0.807752
  192        1.245218   0.645246
  193        1.324993   0.450280
  194        1.336617   0.421704
  195        1.377185   0.327070
  196        1.382186   0.316161
  197        1.394634   0.289883
  198        1.424417   0.232583
  199        1.654584   0.029442
  200        1.876865   0.003275
  201        2.056228   0.000546
  202        2.137089   0.000243
  203        2.234130   0.000092
  204        2.359655   0.000026
  205        2.438414   0.000012
  206        3.129834   0.000000
  207        3.941139   0.000000
  208        4.309954   0.000000
  209        4.424427   0.000000
  210        4.603837   0.000000
  211        4.817258   0.000000
  212        5.116631   0.000000
  213        5.508847   0.000000
  214        5.624560   0.000000
  215        5.718897   0.000000
  216        6.101213   0.000000
  217        6.152509   0.000000
  218        6.445410   0.000000
  219        6.502473   0.000000
  220        6.689502   0.000000
 
  0.2500000E+00  0.8333333E-01  0.0000000E+00  0.1851852E-01
    1      -10.972352   1.000000
    2       -7.766736   1.000000
    3       -6.467696   1.000000
    4       -6.010638   1.000000
    5       -5.823784   1.000000
    6       -5.452668   1.000000
    7       -5.392665   1.000000
    8       -5.294877   1.000000
    9       -5.285331   1.000000
   10       -5.218395   1.000000
   11       -5.192266   1.000000
   12       -5.158264   1.000000
   13       -5.021361   1.000000
   14       -4.968552   1.000000
   15       -4.918423   1.000000
   16       -4.851280   1.000000
   17       -4.727717   1.000000
   18       -4.708741   1.000000
   19       -4.650470   1.000000
   20       -4.457912   1.000000
   21       -4.383860   1.000000
   22       -4.323070   1.000000
   23       -4.305755   1.000000
   24       -4.273633   1.000000
   25       -4.255088   1.000000
   26       -4.211209   1.000000
   27       -4.194770   1.000000
   28       -4.131103   1.000000
   29       -4.118759   1.000000
   30       -4.111661   1.000000
   31       -4.084143   1.000000
   32       -4.045833   1.000000
   33       -4.032375   1.000000
   34       -3.977446   1.000000
   35       -3.933035   1.000000
   36       -3.909242   1.000000
   37       -3.770822   1.000000
   38       -3.726749   1.000000
   39       -3.715337   1.000000
   40       -3.676956   1.000000
   41       -3.646822   1.000000
   42       -3.601823   1.000000
   43       -3.493272   1.000000
   44       -3.432976   1.000000
   45       -3.381050   1.000000
   46       -3.342183   1.000000
   47       -3.320631   1.000000
   48       -3.294760   1.000000
   49       -3.248284   1.000000
   50       -3.178204   1.000000
   51       -3.121304   1.000000
   52       -3.077504   1.000000
   53       -3.011384   1.000000
   54       -2.993514   1.000000
   55       -2.963869   1.000000
   56       -2.951077   1.000000
   57       -2.874934   1.000000
   58       -2.753917   1.000000
   59       -2.728756   1.000000
   60       -2.620368   1.000000
   61       -2.535071   1.000000
   62       -2.514191   1.000000
   63       -2.499444   1.000000
   64       -2.456933   1.000000
   65       -2.444544   1.000000
   66       -2.416716   1.000000
   67       -2.384461   1.000000
   68       -2.363206   1.000000
   69       -2.308862   1.000000
   70       -2.274373   1.000000
   71       -2.256819   1.000000
   72       -2.236797   1.000000
   73       -2.215905   1.000000
   74       -2.191913   1.000000
   75       -2.169183   1.000000
   76       -2.129625   1.000000
   77       -2.059003   1.000000
   78       -2.026191   1.000000
   79       -1.984976   1.000000
   80       -1.972282   1.000000
   81       -1.962454   1.000000
   82       -1.939621   1.000000
   83       -1.910657   1.000000
   84       -1.904231   1.000000
   85       -1.871408   1.000000
   86       -1.835851   1.000000
   87       -1.810723   1.000000
   88       -1.791101   1.000000
   89       -1.768731   1.000000
   90       -1.727877   1.000000
   91       -1.712457   1.000000
   92       -1.699481   1.000000
   93       -1.692946   1.000000
   94       -1.658199   1.000000
   95       -1.642075   1.000000
   96       -1.613662   1.000000
   97       -1.607528   1.000000
   98       -1.573807   1.000000
   99       -1.552244   1.000000
  100       -1.525241   1.000000
  101       -1.481059   1.000000
  102       -1.460502   1.000000
  103       -1.437569   1.000000
  104       -1.429054   1.000000
  105       -1.405731   1.000000
  106       -1.371400   1.000000
  107       -1.334826   1.000000
  108       -1.315649   1.000000
  109       -1.289628   1.000000
  110       -1.255814   1.000000
  111       -1.223455   1.000000
  112       -1.187231   1.000000
  113       -1.161096   1.000000
  114       -1.074110   1.000000
  115       -1.054606   1.000000
  116       -1.051216   1.000000
  117       -0.981849   1.000000
  118       -0.882709   1.000000
  119       -0.817210   1.000000
  120       -0.787780   1.000000
  121       -0.767931   1.000000
  122       -0.743335   1.000000
  123       -0.709636   1.000000
  124       -0.692316   1.000000
  125       -0.630180   1.000000
  126       -0.595571   1.000000
  127       -0.547778   1.000000
  128       -0.508245   1.000000
  129       -0.449799   1.000000
  130       -0.334032   1.000000
  131       -0.314154   1.000000
  132       -0.302733   1.000000
  133       -0.271829   1.000000
  134       -0.253974   1.000000
  135       -0.216452   1.000000
  136       -0.163794   1.000000
  137       -0.156492   1.000000
  138       -0.129356   0.999999
  139       -0.066788   0.999999
  140       -0.012548   0.999998
  141        0.019412   0.999997
  142        0.028373   0.999997
  143        0.057509   0.999996
  144        0.086529   0.999995
  145        0.113956   0.999993
  146        0.126803   0.999992
  147        0.151001   0.999990
  148        0.169824   0.999988
  149        0.193694   0.999985
  150        0.216158   0.999981
  151        0.254002   0.999973
  152        0.281998   0.999964
  153        0.304418   0.999955
  154        0.329535   0.999942
  155        0.354869   0.999925
  156        0.392875   0.999891
  157        0.413738   0.999865
  158        0.448878   0.999809
  159        0.501760   0.999675
  160        0.563695   0.999397
  161        0.597288   0.999157
  162        0.626488   0.998871
  163        0.676868   0.998133
  164        0.705181   0.997524
  165        0.726095   0.996950
  166        0.764525   0.995527
  167        0.778346   0.994867
  168        0.833501   0.991123
  169        0.848137   0.989738
  170        0.887031   0.984933
  171        0.918893   0.979396
  172        0.939173   0.974880
  173        0.973224   0.965046
  174        0.996573   0.956255
  175        1.023566   0.943467
  176        1.034742   0.937201
  177        1.070808   0.912321
  178        1.086367   0.899050
  179        1.113647   0.871459
  180        1.126240   0.856680
  181        1.158078   0.812997
  182        1.183704   0.770891
  183        1.199640   0.741541
  184        1.244075   0.647858
  185        1.256444   0.619152
  186        1.281125   0.559502
  187        1.301697   0.508354
  188        1.315961   0.472723
  189        1.357202   0.372470
  190        1.371751   0.339142
  191        1.428035   0.226188
  192        1.459418   0.175985
  193        1.482060   0.145516
  194        1.528643   0.096561
  195        1.579174   0.060577
  196        1.611898   0.044421
  197        1.648623   0.031194
  198        1.804958   0.006698
  199        1.832207   0.005109
  200        1.880408   0.003161
  201        2.126944   0.000269
  202        2.327601   0.000036
  203        2.773364   0.000000
  204        2.899957   0.000000
  205        2.962467   0.000000
  206        3.163725   0.000000
  207        3.807003   0.000000
  208        4.027428   0.000000
  209        4.460449   0.000000
  210        4.662907   0.000000
  211        4.908576   0.000000
  212        5.060535   0.000000
  213        5.216179   0.000000
  214        5.388862   0.000000
  215        5.607666   0.000000
  216        5.722008   0.000000
  217        5.961828   0.000000
  218        6.182785   0.000000
  219        6.387763   0.000000
  220        6.530819   0.000000
 
  0.1666667E+00  0.2500000E+00  0.0000000E+00  0.1851852E-01
    1      -10.972798   1.000000
    2       -7.766776   1.000000
    3       -6.468411   1.000000
    4       -6.014370   1.000000
    5       -5.820382   1.000000
    6       -5.464082   1.000000
    7       -5.384755   1.000000
    8       -5.295297   1.000000
    9       -5.285606   1.000000
   10       -5.221420   1.000000
   11       -5.205430   1.000000
   12       -5.148878   1.000000
   13       -5.047635   1.000000