 vasp.5.4.1 24Jun15 (build Oct 10 2016 12:42:00) complex                        
  
 executed on           IFC91_ompi date 2018.05.25  11:54:03
 running on   20 total cores
 distrk:  each k-point on   20 cores,    1 groups
 distr:  one band on NCORES_PER_BAND=   4 cores,    5 groups


--------------------------------------------------------------------------------------------------------


 INCAR:
 POTCAR:    PAW_PBE Pt 04Feb2005                  
 POTCAR:    PAW_PBE C 08Apr2002                   
 POTCAR:    PAW_PBE H 15Jun2001                   
 POTCAR:    PAW_PBE Pt 04Feb2005                  
   VRHFIN =Pt: s1d9                                                             
   LEXCH  = PE                                                                  
   EATOM  =   729.1176 eV,   53.5886 Ry                                         
                                                                                
   TITEL  = PAW_PBE Pt 04Feb2005                                                
   LULTRA =        F    use ultrasoft PP ?                                      
   IUNSCR =        1    unscreen: 0-lin 1-nonlin 2-no                           
   RPACOR =    2.330    partial core radius                                     
   POMASS =  195.080; ZVAL   =   10.000    mass and valenz                      
   RCORE  =    2.600    outmost cutoff radius                                   
   RWIGS  =    2.750; RWIGS  =    1.455    wigner-seitz radius (au A)           
   ENMAX  =  230.283; ENMIN  =  172.712 eV                                      
   ICORE  =        3    local potential                                         
   LCOR   =        T    correct aug charges                                     
   LPAW   =        T    paw PP                                                  
   EAUG   =  358.966                                                            
   DEXC   =    0.000                                                            
   RMAX   =    2.658    core radius for proj-oper                               
   RAUG   =    1.300    factor for augmentation sphere                          
   RDEP   =    2.761    radius for radial grids                                 
   RDEPT  =    2.203    core radius for aug-charge                              
                                                                                
   Atomic configuration                                                         
   16 entries                                                                   
     n  l   j            E        occ.                                          
     1  0  0.50    -78401.1885   2.0000                                         
     2  0  0.50    -13770.7750   2.0000                                         
     2  1  1.50    -11931.0468   6.0000                                         
     3  0  0.50     -3234.7234   2.0000                                         
     3  1  1.50     -2699.2216   6.0000                                         
     3  2  2.50     -2119.5714  10.0000                                         
     4  0  0.50      -695.1528   2.0000                                         
     4  1  1.50      -519.6034   6.0000                                         
     4  2  2.50      -306.6786  10.0000                                         
     4  3  3.50       -70.1041  14.0000                                         
     5  0  0.50      -101.7747   2.0000                                         
     5  1  1.50       -55.9873   6.0000                                         
     5  2  2.50        -6.1423   9.0000                                         
     6  0  0.50        -5.6573   1.0000                                         
     6  1  1.50        -6.8029   0.0000                                         
     5  3  2.50        -1.3606   0.0000                                         
   Description                                                                  
     l       E           TYP  RCUT    TYP  RCUT                                 
     2     -6.1423404     23  2.500                                             
     2     -7.5029230     23  2.500                                             
     0     -5.6573207     23  2.500                                             
     0      0.7416693     23  2.500                                             
     1     -2.7211652     23  2.600                                             
     1     20.4087390     23  2.600                                             
     3     -1.3605826     23  2.500                                             
  local pseudopotential read in
  partial core-charges read in
  partial kinetic energy density read in
  atomic valenz-charges read in
  non local Contribution for L=           2  read in
    real space projection operators read in
  non local Contribution for L=           2  read in
    real space projection operators read in
  non local Contribution for L=           0  read in
    real space projection operators read in
  non local Contribution for L=           0  read in
    real space projection operators read in
  non local Contribution for L=           1  read in
    real space projection operators read in
  non local Contribution for L=           1  read in
    real space projection operators read in
    PAW grid and wavefunctions read in
 
   number of l-projection  operators is LMAX  =           6
   number of lm-projection operators is LMMAX =          18
 
 POTCAR:    PAW_PBE C 08Apr2002                   
   VRHFIN =C: s2p2                                                              
   LEXCH  = PE                                                                  
   EATOM  =   147.1560 eV,   10.8157 Ry                                         
                                                                                
   TITEL  = PAW_PBE C 08Apr2002                                                 
   LULTRA =        F    use ultrasoft PP ?                                      
   IUNSCR =        1    unscreen: 0-lin 1-nonlin 2-no                           
   RPACOR =    1.200    partial core radius                                     
   POMASS =   12.011; ZVAL   =    4.000    mass and valenz                      
   RCORE  =    1.500    outmost cutoff radius                                   
   RWIGS  =    1.630; RWIGS  =    0.863    wigner-seitz radius (au A)           
   ENMAX  =  400.000; ENMIN  =  300.000 eV                                      
   ICORE  =        2    local potential                                         
   LCOR   =        T    correct aug charges                                     
   LPAW   =        T    paw PP                                                  
   EAUG   =  644.873                                                            
   DEXC   =    0.000                                                            
   RMAX   =    1.529    core radius for proj-oper                               
   RAUG   =    1.300    factor for augmentation sphere                          
   RDEP   =    1.501    radius for radial grids                                 
   RDEPT  =    1.300    core radius for aug-charge                              
                                                                                
   Atomic configuration                                                         
    4 entries                                                                   
     n  l   j            E        occ.                                          
     1  0  0.50      -273.3789   2.0000                                         
     2  0  0.50       -13.7508   2.0000                                         
     2  1  0.50        -5.2854   2.0000                                         
     3  2  1.50        -5.4423   0.0000                                         
   Description                                                                  
     l       E           TYP  RCUT    TYP  RCUT                                 
     0    -13.7508458     23  1.200                                             
     0     -8.2022199     23  1.200                                             
     1     -5.2854383     23  1.500                                             
     1     34.0145650     23  1.500                                             
     2     -5.4423304      7  1.500                                             
  local pseudopotential read in
  partial core-charges read in
  partial kinetic energy density read in
  atomic valenz-charges read in
  non local Contribution for L=           0  read in
    real space projection operators read in
  non local Contribution for L=           0  read in
    real space projection operators read in
  non local Contribution for L=           1  read in
    real space projection operators read in
  non local Contribution for L=           1  read in
    real space projection operators read in
    PAW grid and wavefunctions read in
 
   number of l-projection  operators is LMAX  =           4
   number of lm-projection operators is LMMAX =           8
 
 POTCAR:    PAW_PBE H 15Jun2001                   
   VRHFIN =H: ultrasoft test                                                    
   LEXCH  = PE                                                                  
   EATOM  =    12.4884 eV,    0.9179 Ry                                         
                                                                                
   TITEL  = PAW_PBE H 15Jun2001                                                 
   LULTRA =        F    use ultrasoft PP ?                                      
   IUNSCR =        0    unscreen: 0-lin 1-nonlin 2-no                           
   RPACOR =    0.000    partial core radius                                     
   POMASS =    1.000; ZVAL   =    1.000    mass and valenz                      
   RCORE  =    1.100    outmost cutoff radius                                   
   RWIGS  =    0.700; RWIGS  =    0.370    wigner-seitz radius (au A)           
   ENMAX  =  250.000; ENMIN  =  200.000 eV                                      
   RCLOC  =    0.701    cutoff for local pot                                    
   LCOR   =        T    correct aug charges                                     
   LPAW   =        T    paw PP                                                  
   EAUG   =  400.000                                                            
   RMAX   =    1.123    core radius for proj-oper                               
   RAUG   =    1.200    factor for augmentation sphere                          
   RDEP   =    1.112    radius for radial grids                                 
   RDEPT  =    0.926    core radius for aug-charge                              
                                                                                
   Atomic configuration                                                         
    2 entries                                                                   
     n  l   j            E        occ.                                          
     1  0  0.50        -6.4927   1.0000                                         
     2  1  0.50        -3.4015   0.0000                                         
   Description                                                                  
     l       E           TYP  RCUT    TYP  RCUT                                 
     0     -6.4927494     23  1.100                                             
     0      6.8029130     23  1.100                                             
     1     -4.0817478     23  1.100                                             
  local pseudopotential read in
  atomic valenz-charges read in
  non local Contribution for L=           0  read in
    real space projection operators read in
  non local Contribution for L=           0  read in
    real space projection operators read in
  non local Contribution for L=           1  read in
    real space projection operators read in
    PAW grid and wavefunctions read in
 
   number of l-projection  operators is LMAX  =           3
   number of lm-projection operators is LMMAX =           5
 
 Optimization of the real space projectors (new method)

 maximal supplied QI-value         = 14.36
 optimisation between [QCUT,QGAM] = [ 10.20, 20.39] = [ 29.12,116.47] Ry 
 Optimized for a Real-space Cutoff    1.51 Angstroem

   l    n(q)    QCUT    max X(q) W(low)/X(q) W(high)/X(q)  e(spline) 
   2      8    10.197    66.195    0.45E-03    0.45E-03    0.14E-06
   2      8    10.197    64.643    0.46E-03    0.46E-03    0.14E-06
   0      9    10.197    95.520    0.15E-03    0.11E-03    0.54E-07
   0      9    10.197    63.403    0.15E-03    0.11E-03    0.52E-07
   1      9    10.197    19.961    0.13E-03    0.17E-03    0.77E-07
   1      9    10.197    13.289    0.10E-03    0.15E-03    0.67E-07
 Optimization of the real space projectors (new method)

 maximal supplied QI-value         = 25.13
 optimisation between [QCUT,QGAM] = [ 10.05, 20.36] = [ 28.30,116.06] Ry 
 Optimized for a Real-space Cutoff    1.30 Angstroem

   l    n(q)    QCUT    max X(q) W(low)/X(q) W(high)/X(q)  e(spline) 
   0      8    10.053   115.676    0.49E-03    0.72E-03    0.18E-06
   0      8    10.053    87.132    0.49E-03    0.71E-03    0.18E-06
   1      7    10.053     4.429    0.32E-03    0.31E-03    0.18E-06
   1      7    10.053     2.733    0.23E-03    0.19E-03    0.20E-06
 Optimization of the real space projectors (new method)

 maximal supplied QI-value         = 34.20
 optimisation between [QCUT,QGAM] = [  9.92, 20.18] = [ 27.55,114.04] Ry 
 Optimized for a Real-space Cutoff    1.26 Angstroem

   l    n(q)    QCUT    max X(q) W(low)/X(q) W(high)/X(q)  e(spline) 
   0      8     9.919    19.460    0.50E-03    0.23E-03    0.29E-06
   0      8     9.919    12.209    0.48E-03    0.23E-03    0.28E-06
   1      7     9.919     4.655    0.17E-03    0.75E-03    0.30E-06
  PAW_PBE Pt 04Feb2005                  :
 energy of atom  1       EATOM= -729.1176
 kinetic energy error for atom=    0.0056 (will be added to EATOM!!)
  PAW_PBE C 08Apr2002                   :
 energy of atom  2       EATOM= -147.1560
 kinetic energy error for atom=    0.0288 (will be added to EATOM!!)
  PAW_PBE H 15Jun2001                   :
 energy of atom  3       EATOM=  -12.4884
 kinetic energy error for atom=    0.0098 (will be added to EATOM!!)
 
 
 POSCAR: Pt  C  H                                
  positions in cartesian coordinates
  No initial velocities read in
 exchange correlation table for  LEXCH =        8
   RHO(1)=    0.500       N(1)  =     2000
   RHO(2)=  100.500       N(2)  =     4000

 VTST: version 3.1, (03/28/14)

 CHAIN: initializing optimizer
 
 OPT: Using VASP Dynamics algorithm
 CHAIN: Read ICHAIN            0
 
 POSCAR: Pt  C  H                                
  positions in cartesian coordinates
  No initial velocities read in
 


--------------------------------------------------------------------------------------------------------


 ion  position               nearest neighbor table
   1  0.000  0.000  0.343-  12 2.81  16 2.81  10 2.81   6 2.81   7 2.81   8 2.81   2 2.81   3 2.81
                             4 2.81
   2  0.333  0.000  0.343-  10 2.81  11 2.81  17 2.81   3 2.81   9 2.81   1 2.81   4 2.81   5 2.81
                             8 2.81
   3  0.667  0.000  0.343-  11 2.81  18 2.81  12 2.81   2 2.81   5 2.81   9 2.81   1 2.81   6 2.81
                             7 2.81
   4  0.000  0.333  0.343-  10 2.81  13 2.81  15 2.81   7 2.81   9 2.81   2 2.81   5 2.81   6 2.81
                             1 2.81
   5  0.333  0.333  0.343-  14 2.81  13 2.81  11 2.81   8 2.81   6 2.81   3 2.81   7 2.81   2 2.81
                             4 2.81
   6  0.667  0.333  0.343-  12 2.81  14 2.81  15 2.81   5 2.81   8 2.81   9 2.81   1 2.81   3 2.81
                             4 2.81
   7  0.000  0.667  0.343-  13 2.81  18 2.81  16 2.81   4 2.81   5 2.81   9 2.81   1 2.81   3 2.81
                             8 2.81
   8  0.333  0.667  0.343-  14 2.81  16 2.81  17 2.81   5 2.81   6 2.81   9 2.81   2 2.81   7 2.81
                             1 2.81
   9  0.667  0.667  0.343-  15 2.81  17 2.81  18 2.81   8 2.81   6 2.81   4 2.81   2 2.81   3 2.81
                             7 2.81
  10  0.111  0.111  0.448-  19 2.77  26 2.77   2 2.81   4 2.81   1 2.81  11 2.81  13 2.81  15 2.81
                            17 2.81  16 2.81  12 2.81  20 2.81
  11  0.444  0.111  0.448-  20 2.79  27 2.80   5 2.81   2 2.81   3 2.81  14 2.81  10 2.81  13 2.81
                            18 2.81  12 2.81  17 2.81  21 2.81
  12  0.778  0.111  0.448-  19 2.78   6 2.81   1 2.81   3 2.81  15 2.81  14 2.81  11 2.81  16 2.81
                            18 2.81  10 2.81  21 2.81  25 2.82
  13  0.111  0.444  0.448-  22 2.78  20 2.80   7 2.81   4 2.81   5 2.81  14 2.81  10 2.81  11 2.81
                            18 2.81  15 2.81  16 2.81  23 2.81
  14  0.444  0.444  0.448-  24 2.78   5 2.81   8 2.81   6 2.81  13 2.81  11 2.81  16 2.81  12 2.81
                            17 2.81  15 2.81  23 2.81  21 2.81
  15  0.778  0.444  0.448-  24 2.78  19 2.78  22 2.79   4 2.81   6 2.81   9 2.81  12 2.81  10 2.81
                            18 2.81  13 2.81  14 2.81  17 2.81
  16  0.111  0.778  0.448-  26 2.76   8 2.81   1 2.81   7 2.81  17 2.81  14 2.81  10 2.81  12 2.81
                            18 2.81  13 2.81  25 2.83  23 2.83
  17  0.444  0.778  0.448-  26 2.77  24 2.78   9 2.81   2 2.81   8 2.81  16 2.81  10 2.81  11 2.81
                            18 2.81  14 2.81  15 2.81  27 2.81
  18  0.778  0.778  0.448-  22 2.79  27 2.79   3 2.81   7 2.81   9 2.81  13 2.81  15 2.81  16 2.81
                            17 2.81  11 2.81  12 2.81  25 2.81
  19  0.891  0.221  0.551-  33 2.77  10 2.77  15 2.78  12 2.78  26 2.80  22 2.81  25 2.81  20 2.81
                            28 2.82  21 2.82  24 2.82  31 2.83
  20  0.224  0.223  0.552-  23 2.77  29 2.79  21 2.79  11 2.79  31 2.79  13 2.80  22 2.81  27 2.81
                            10 2.81  19 2.81  26 2.84  32 2.95
  21  0.556  0.221  0.553-  27 2.79  20 2.79  25 2.79  23 2.79  11 2.81  12 2.81  14 2.81  33 2.81
                            19 2.82  24 2.82  32 2.91  30 2.92
  22  0.890  0.556  0.551-  13 2.78  18 2.79  15 2.79  25 2.80  23 2.80  36 2.81  20 2.81  27 2.81
                            31 2.81  24 2.81  19 2.81  34 2.83
  23  0.224  0.552  0.553-  20 2.77  21 2.79  34 2.79  35 2.80  22 2.80  13 2.81  14 2.81  24 2.81
                            26 2.82  16 2.83  25 2.84  32 2.91
  24  0.556  0.556  0.551-  17 2.78  15 2.78  33 2.78  14 2.78  26 2.80  35 2.81  22 2.81  23 2.81
                            27 2.81  21 2.82  19 2.82  36 2.83
  25  0.886  0.890  0.553-  27 2.77  21 2.79  28 2.79  34 2.80  22 2.80  18 2.81  19 2.81  12 2.82
                            26 2.82  16 2.83  23 2.84  30 2.91
  26  0.222  0.887  0.550-  16 2.76  17 2.77  10 2.77  29 2.77  19 2.80  24 2.80  25 2.82  23 2.82
                            28 2.82  35 2.83  27 2.84  20 2.84
  27  0.557  0.890  0.552-  25 2.77  29 2.78  21 2.79  18 2.79  11 2.80  36 2.80  20 2.81  22 2.81
                            17 2.81  24 2.81  26 2.84  30 2.95
  28  0.002  0.999  0.656-  29 2.75  25 2.79  34 2.80  30 2.80  33 2.81  35 2.81  19 2.82  26 2.82
                            31 2.82
  29  0.331  0.995  0.654-  28 2.75  35 2.75  26 2.77  27 2.78  20 2.79  31 2.81  36 2.81  30 2.88
                            32 2.88
  30  0.668  0.002  0.664-  37 2.04  32 2.78  28 2.80  36 2.82  34 2.83  33 2.85  29 2.88  25 2.91
                            21 2.92  27 2.95
  31  0.003  0.334  0.656-  33 2.76  20 2.79  34 2.80  36 2.81  29 2.81  22 2.81  32 2.82  28 2.82
                            19 2.83
  32  0.338  0.333  0.664-  37 2.04  30 2.78  35 2.80  31 2.82  34 2.82  33 2.85  29 2.88  23 2.91
                            21 2.91  20 2.95
  33  0.674  0.338  0.655-  31 2.76  36 2.76  19 2.77  24 2.78  28 2.81  35 2.81  21 2.81  32 2.85
                            30 2.85
  34  0.003  0.667  0.657-  23 2.79  25 2.80  31 2.80  28 2.80  36 2.80  35 2.80  32 2.82  30 2.83
                            22 2.83
  35  0.336  0.666  0.656-  29 2.75  23 2.80  34 2.80  32 2.80  28 2.81  33 2.81  24 2.81  36 2.82
                            26 2.83
  36  0.670  0.667  0.656-  33 2.76  34 2.80  27 2.80  31 2.81  22 2.81  29 2.81  30 2.82  35 2.82
                            24 2.83
  37  0.499  0.163  0.733-  39 1.10  38 1.10  30 2.04  32 2.04
  38  0.561  0.224  0.761-  37 1.10
  39  0.435  0.100  0.760-  37 1.10
 
  LATTYP: Found a hexagonal cell.
 ALAT       =     8.4216417639
 C/A-ratio  =     2.5976219743
  
  Lattice vectors:
  
 A1 = (   4.2108208820,  -7.2933557091,   0.0000000000)
 A2 = (  -8.4216417639,   0.0000000000,   0.0000000000)
 A3 = (   0.0000000000,   0.0000000000, -21.8762417060)


Analysis of symmetry for initial positions (statically):
=====================================================================
 Subroutine PRICEL returns:
 Original cell was already a primitive cell.
 

 Routine SETGRP: Setting up the symmetry group for a 
 hexagonal supercell.


 Subroutine GETGRP returns: Found  1 space group operations
 (whereof  1 operations were pure point group operations)
 out of a pool of 24 trial point group operations.


The static configuration has the point symmetry C_1 .


Analysis of symmetry for dynamics (positions and initial velocities):
=====================================================================
 Subroutine PRICEL returns:
 Original cell was already a primitive cell.
 

 Routine SETGRP: Setting up the symmetry group for a 
 hexagonal supercell.


 Subroutine GETGRP returns: Found  1 space group operations
 (whereof  1 operations were pure point group operations)
 out of a pool of 24 trial point group operations.


The dynamic configuration has the point symmetry C_1 .


Analysis of constrained symmetry for selective dynamics:
=====================================================================
 Subroutine PRICEL returns:
 Original cell was already a primitive cell.
 

 Routine SETGRP: Setting up the symmetry group for a 
 hexagonal supercell.


 Subroutine GETGRP returns: Found  1 space group operations
 (whereof  1 operations were pure point group operations)
 out of a pool of 24 trial point group operations.


The constrained configuration has the point symmetry C_1 .
 
 
 KPOINTS: KPOINTS created by Atomic Simulation Env

Automatic generation of k-mesh.
Space group operators:
 irot       det(A)        alpha          n_x          n_y          n_z        tau_x        tau_y        tau_z
    1     1.000000     0.000000     1.000000     0.000000     0.000000     0.000000     0.000000     0.000000
 
 Subroutine IBZKPT returns following result:
 ===========================================
 
 Found     54 irreducible k-points:
 
 Following reciprocal coordinates:
            Coordinates               Weight
  0.083333  0.083333  0.000000     16.000000
  0.000000  0.083333  0.000000     16.000000
 -0.083333  0.000000  0.000000     16.000000
  0.250000  0.083333  0.000000     16.000000
  0.166667  0.250000  0.000000     16.000000
 -0.083333  0.166667  0.000000     16.000000
  0.166667 -0.083333  0.000000     16.000000
 -0.083333 -0.250000  0.000000     16.000000
 -0.250000 -0.166667  0.000000     16.000000
  0.416667  0.083333  0.000000     16.000000
  0.333333  0.416667  0.000000     16.000000
 -0.083333  0.333333  0.000000     16.000000
  0.333333 -0.083333  0.000000     16.000000
 -0.083333 -0.416667  0.000000     16.000000
 -0.416667 -0.333333  0.000000     16.000000
 -0.416667  0.083333  0.000000     16.000000
  0.500000 -0.416667  0.000000     16.000000
 -0.083333  0.500000  0.000000     16.000000
  0.500000 -0.083333  0.000000     16.000000
 -0.083333  0.416667  0.000000     16.000000
  0.416667  0.500000  0.000000     16.000000
 -0.250000  0.083333  0.000000     16.000000
 -0.333333 -0.250000  0.000000     16.000000
 -0.083333 -0.333333  0.000000     16.000000
 -0.333333 -0.083333  0.000000     16.000000
 -0.083333  0.250000  0.000000     16.000000
  0.250000  0.333333  0.000000     16.000000
 -0.083333  0.083333  0.000000     16.000000
 -0.166667 -0.083333  0.000000     16.000000
 -0.083333 -0.166667  0.000000     16.000000
  0.250000  0.250000  0.000000     16.000000
  0.000000  0.250000  0.000000     16.000000
 -0.250000  0.000000  0.000000     16.000000
  0.416667  0.250000  0.000000     16.000000
  0.166667  0.416667  0.000000     16.000000
 -0.250000  0.166667  0.000000     16.000000
  0.166667 -0.250000  0.000000     16.000000
 -0.250000 -0.416667  0.000000     16.000000
 -0.416667 -0.166667  0.000000     16.000000
 -0.416667  0.250000  0.000000     16.000000
  0.333333 -0.416667  0.000000     16.000000
 -0.250000  0.333333  0.000000     16.000000
  0.333333 -0.250000  0.000000     16.000000
 -0.250000  0.416667  0.000000     16.000000
  0.416667 -0.333333  0.000000     16.000000
 -0.250000  0.250000  0.000000     16.000000
  0.500000 -0.250000  0.000000     16.000000
 -0.250000  0.500000  0.000000     16.000000
  0.416667  0.416667  0.000000     16.000000
  0.000000  0.416667  0.000000     16.000000
 -0.416667 -0.000000  0.000000     16.000000
 -0.416667  0.416667  0.000000     16.000000
  0.166667 -0.416667  0.000000     16.000000
 -0.416667  0.166667  0.000000     16.000000
 
 Following cartesian coordinates:
            Coordinates               Weight
  0.009895  0.005713  0.000000     16.000000
  0.000000  0.011426  0.000000     16.000000
 -0.009895  0.005713  0.000000     16.000000
  0.029685 -0.005713  0.000000     16.000000
  0.019790  0.022852  0.000000     16.000000
 -0.009895  0.028565  0.000000     16.000000
  0.019790 -0.022852  0.000000     16.000000
 -0.009895 -0.028565  0.000000     16.000000
 -0.029685 -0.005713  0.000000     16.000000
  0.049476 -0.017139  0.000000     16.000000
  0.039581  0.034278  0.000000     16.000000
 -0.009895  0.051417  0.000000     16.000000
  0.039581 -0.034278  0.000000     16.000000
 -0.009895 -0.051417  0.000000     16.000000
 -0.049476 -0.017139  0.000000     16.000000
 -0.049476  0.039991  0.000000     16.000000
  0.059371 -0.091407  0.000000     16.000000
 -0.009895  0.074269  0.000000     16.000000
  0.059371 -0.045704  0.000000     16.000000
 -0.009895  0.062843  0.000000     16.000000
  0.049476  0.039991  0.000000     16.000000
 -0.029685  0.028565  0.000000     16.000000
 -0.039581 -0.011426  0.000000     16.000000
 -0.009895 -0.039991  0.000000     16.000000
 -0.039581  0.011426  0.000000     16.000000
 -0.009895  0.039991  0.000000     16.000000
  0.029685  0.028565  0.000000     16.000000
 -0.009895  0.017139  0.000000     16.000000
 -0.019790  0.000000  0.000000     16.000000
 -0.009895 -0.017139  0.000000     16.000000
  0.029685  0.017139  0.000000     16.000000
  0.000000  0.034278  0.000000     16.000000
 -0.029685  0.017139  0.000000     16.000000
  0.049476  0.005713  0.000000     16.000000
  0.019790  0.045704  0.000000     16.000000
 -0.029685  0.039991  0.000000     16.000000
  0.019790 -0.045704  0.000000     16.000000
 -0.029685 -0.039991  0.000000     16.000000
 -0.049476  0.005713  0.000000     16.000000
 -0.049476  0.062843  0.000000     16.000000
  0.039581 -0.079981  0.000000     16.000000
 -0.029685  0.062843  0.000000     16.000000
  0.039581 -0.057130  0.000000     16.000000
 -0.029685  0.074269  0.000000     16.000000
  0.049476 -0.074269  0.000000     16.000000
 -0.029685  0.051417  0.000000     16.000000
  0.059371 -0.068556  0.000000     16.000000
 -0.029685  0.085694  0.000000     16.000000
  0.049476  0.028565  0.000000     16.000000
  0.000000  0.057130  0.000000     16.000000
 -0.049476  0.028565  0.000000     16.000000
 -0.049476  0.085694  0.000000     16.000000
  0.019790 -0.068556  0.000000     16.000000
 -0.049476  0.051417  0.000000     16.000000
 


--------------------------------------------------------------------------------------------------------




 Dimension of arrays:
   k-points           NKPTS =     54   k-points in BZ     NKDIM =     54   number of bands    NBANDS=    220
   number of dos      NEDOS =    301   number of ions     NIONS =     39
   non local maximal  LDIM  =      6   non local SUM 2l+1 LMDIM =     18
   total plane-waves  NPLWV = 190512
   max r-space proj   IRMAX =   2088   max aug-charges    IRDMAX=   8786
   dimension x,y,z NGX =    42 NGY =   42 NGZ =  108
   dimension x,y,z NGXF=    84 NGYF=   84 NGZF=  216
   support grid    NGXF=    84 NGYF=   84 NGZF=  216
   ions per type =              36   1   2
 NGX,Y,Z   is equivalent  to a cutoff of   8.29,  8.29,  8.21 a.u.
 NGXF,Y,Z  is equivalent  to a cutoff of  16.58, 16.58, 16.41 a.u.


 I would recommend the setting:
   dimension x,y,z NGX =    41 NGY =   41 NGZ =  107
 SYSTEM =  unknown system                          
 POSCAR =  Pt  C  H                                

 Startparameter for this run:
   NWRITE =      2    write-flag & timer
   PREC   = normal    normal or accurate (medium, high low for compatibility)
   ISTART =      0    job   : 0-new  1-cont  2-samecut
   ICHARG =      2    charge: 1-file 2-atom 10-const
   ISPIN  =      1    spin polarized calculation?
   LNONCOLLINEAR =      F non collinear calculations
   LSORBIT =      F    spin-orbit coupling
   INIWAV =      1    electr: 0-lowe 1-rand  2-diag
   LASPH  =      F    aspherical Exc in radial PAW
   METAGGA=      F    non-selfconsistent MetaGGA calc.

 Electronic Relaxation 1
   ENCUT  =  400.0 eV  29.40 Ry    5.42 a.u.  13.73 13.73 35.67*2*pi/ulx,y,z
   ENINI  =  400.0     initial cutoff
   ENAUG  =  644.9 eV  augmentation charge cutoff
   NELM   =     60;   NELMIN=  4; NELMDL= -4     # of ELM steps 
   EDIFF  = 0.1E-05   stopping-criterion for ELM
   LREAL  =      T    real-space projection
   NLSPLINE    = F    spline interpolate recip. space projectors
   LCOMPAT=      F    compatible to vasp.4.4
   GGA_COMPAT  = T    GGA compatible to vasp.4.4-vasp.4.6
   LMAXPAW     = -100 max onsite density
   LMAXMIX     =    2 max onsite mixed and CHGCAR
   VOSKOWN=      0    Vosko Wilk Nusair interpolation
   ROPT   =   -0.00050  -0.00050  -0.00050
 Ionic relaxation
   EDIFFG = 0.1E-04   stopping-criterion for IOM
   NSW    =      0    number of steps for IOM
   NBLOCK =      1;   KBLOCK =      1    inner block; outer block 
   IBRION =     -1    ionic relax: 0-MD 1-quasi-New 2-CG
   NFREE  =      0    steps in history (QN), initial steepest desc. (CG)
   ISIF   =      2    stress and relaxation
   IWAVPR =     10    prediction:  0-non 1-charg 2-wave 3-comb
   ISYM   =      2    0-nonsym 1-usesym 2-fastsym
   LCORR  =      T    Harris-Foulkes like correction to forces

   POTIM  = 0.5000    time-step for ionic-motion
   TEIN   =    0.0    initial temperature
   TEBEG  =    0.0;   TEEND  =   0.0 temperature during run
   SMASS  =  -3.00    Nose mass-parameter (am)
   estimated Nose-frequenzy (Omega)   =  0.10E-29 period in steps =****** mass=  -0.162E-26a.u.
   SCALEE = 1.0000    scale energy and forces
   NPACO  =    256;   APACO  = 16.0  distance and # of slots for P.C.
   PSTRESS=    0.0 pullay stress

  Mass of Ions in am
   POMASS = 195.08 12.01  1.00
  Ionic Valenz
   ZVAL   =  10.00  4.00  1.00
  Atomic Wigner-Seitz radii
   RWIGS  =  -1.00 -1.00 -1.00
  virtual crystal weights 
   VCA    =   1.00  1.00  1.00
   NELECT =     366.0000    total number of electrons
   NUPDOWN=      -1.0000    fix difference up-down

 DOS related values:
   EMIN   =  10.00;   EMAX   =-10.00  energy-range for DOS
   EFERMI =   0.00
   ISMEAR =    -1;   SIGMA  =   0.10  broadening in eV -4-tet -1-fermi 0-gaus

 Electronic relaxation 2 (details)
   IALGO  =     68    algorithm
   LDIAG  =      T    sub-space diagonalisation (order eigenvalues)
   LSUBROT=      F    optimize rotation matrix (better conditioning)
   TURBO    =      0    0=normal 1=particle mesh
   IRESTART =      0    0=no restart 2=restart with 2 vectors
   NREBOOT  =      0    no. of reboots
   NMIN     =      0    reboot dimension
   EREF     =   0.00    reference energy to select bands
   IMIX   =      4    mixing-type and parameters
     AMIX     =   0.40;   BMIX     =  1.00
     AMIX_MAG =   1.60;   BMIX_MAG =  1.00
     AMIN     =   0.10
     WC   =   100.;   INIMIX=   1;  MIXPRE=   1;  MAXMIX= -45

 Intra band minimization:
   WEIMIN = 0.0000     energy-eigenvalue tresh-hold
   EBREAK =  0.11E-08  absolut break condition
   DEPER  =   0.30     relativ break condition  

   TIME   =   0.40     timestep for ELM

  volume/ion in A,a.u.               =      34.45       232.50
  Fermi-wavevector in a.u.,A,eV,Ry     =   1.061214  2.005403 15.322538  1.126175
  Thomas-Fermi vector in A             =   2.196622
 
 Write flags
   LWAVE  =      F    write WAVECAR
   LCHARG =      F    write CHGCAR
   LVTOT  =      F    write LOCPOT, total local potential
   LVHAR  =      F    write LOCPOT, Hartree potential only
   LELF   =      F    write electronic localiz. function (ELF)
   LORBIT =      0    0 simple, 1 ext, 2 COOP (PROOUT)


 Dipole corrections
   LMONO  =      F    monopole corrections only (constant potential shift)
   LDIPOL =      F    correct potential (dipole corrections)
   IDIPOL =      0    1-x, 2-y, 3-z, 4-all directions 
   EPSILON=  1.0000000 bulk dielectric constant

 Exchange correlation treatment:
   GGA     =    PE    GGA type
   LEXCH   =     8    internal setting for exchange type
   VOSKOWN=      0    Vosko Wilk Nusair interpolation
   LHFCALC =     F    Hartree Fock is set to
   LHFONE  =     F    Hartree Fock one center treatment
   AEXX    =    0.0000 exact exchange contribution

 Linear response parameters
   LEPSILON=     F    determine dielectric tensor
   LRPA    =     F    only Hartree local field effects (RPA)
   LNABLA  =     F    use nabla operator in PAW spheres
   LVEL    =     F    velocity operator in full k-point grid
   LINTERFAST=   F  fast interpolation
   KINTER  =     0    interpolate to denser k-point grid
   CSHIFT  =0.1000    complex shift for real part using Kramers Kronig
   OMEGAMAX=  -1.0    maximum frequency
   DEG_THRESHOLD= 0.2000000E-02 threshold for treating states as degnerate
   RTIME   =    0.100 relaxation time in fs

 Orbital magnetization related:
   ORBITALMAG=     F  switch on orbital magnetization
   LCHIMAG   =     F  perturbation theory with respect to B field
   DQ        =  0.001000  dq finite difference perturbation B field



--------------------------------------------------------------------------------------------------------


 Static calculation
 charge density and potential will be updated during run
 non-spin polarized calculation
 RMM-DIIS sequential band-by-band and
  variant of blocked Davidson during initial phase
 perform sub-space diagonalisation
    before iterative eigenvector-optimisation
 modified Broyden-mixing scheme, WC =      100.0
 initial mixing is a Kerker type mixing with AMIX =  0.4000 and BMIX =      1.0000
 Hartree-type preconditioning will be used
 using additional bands           37
 real space projection scheme for non local part
 use partial core corrections
 calculate Harris-corrections to forces 
   (improved forces if not selfconsistent)
 use gradient corrections 
 use of overlap-Matrix (Vanderbilt PP)
 Fermi-smearing in eV        SIGMA  =   0.10


--------------------------------------------------------------------------------------------------------


  energy-cutoff  :      400.00
  volume of cell :     1343.68
      direct lattice vectors                 reciprocal lattice vectors
     8.421641764  0.000000000  0.000000000     0.118741693 -0.068555548  0.000000000
     4.210820882  7.293355709  0.000000000     0.000000000  0.137111097  0.000000000
     0.000000000  0.000000000 21.876241706     0.000000000  0.000000000  0.045711691

  length of vectors
     8.421641764  8.421641764 21.876241706     0.137111097  0.137111097  0.045711691


 
 k-points in units of 2pi/SCALE and weight: KPOINTS created by Atomic Simulation Env
   0.00989514  0.00571296  0.00000000       0.019
   0.00000000  0.01142592  0.00000000       0.019
  -0.00989514  0.00571296  0.00000000       0.019
   0.02968542 -0.00571296  0.00000000       0.019
   0.01979028  0.02285185  0.00000000       0.019
  -0.00989514  0.02856481  0.00000000       0.019
   0.01979028 -0.02285185  0.00000000       0.019
  -0.00989514 -0.02856481  0.00000000       0.019
  -0.02968542 -0.00571296  0.00000000       0.019
   0.04947571 -0.01713889  0.00000000       0.019
   0.03958056  0.03427777  0.00000000       0.019
  -0.00989514  0.05141666  0.00000000       0.019
   0.03958056 -0.03427777  0.00000000       0.019
  -0.00989514 -0.05141666  0.00000000       0.019
  -0.04947571 -0.01713889  0.00000000       0.019
  -0.04947571  0.03999074  0.00000000       0.019
   0.05937085 -0.09140740  0.00000000       0.019
  -0.00989514  0.07426851  0.00000000       0.019
   0.05937085 -0.04570370  0.00000000       0.019
  -0.00989514  0.06284259  0.00000000       0.019
   0.04947571  0.03999074  0.00000000       0.019
  -0.02968542  0.02856481  0.00000000       0.019
  -0.03958056 -0.01142592  0.00000000       0.019
  -0.00989514 -0.03999074  0.00000000       0.019
  -0.03958056  0.01142592  0.00000000       0.019
  -0.00989514  0.03999074  0.00000000       0.019
   0.02968542  0.02856481  0.00000000       0.019
  -0.00989514  0.01713889  0.00000000       0.019
  -0.01979028  0.00000000  0.00000000       0.019
  -0.00989514 -0.01713889  0.00000000       0.019
   0.02968542  0.01713889  0.00000000       0.019
   0.00000000  0.03427777  0.00000000       0.019
  -0.02968542  0.01713889  0.00000000       0.019
   0.04947571  0.00571296  0.00000000       0.019
   0.01979028  0.04570370  0.00000000       0.019
  -0.02968542  0.03999074  0.00000000       0.019
   0.01979028 -0.04570370  0.00000000       0.019
  -0.02968542 -0.03999074  0.00000000       0.019
  -0.04947571  0.00571296  0.00000000       0.019
  -0.04947571  0.06284259  0.00000000       0.019
   0.03958056 -0.07998147  0.00000000       0.019
  -0.02968542  0.06284259  0.00000000       0.019
   0.03958056 -0.05712962  0.00000000       0.019
  -0.02968542  0.07426851  0.00000000       0.019
   0.04947571 -0.07426851  0.00000000       0.019
  -0.02968542  0.05141666  0.00000000       0.019
   0.05937085 -0.06855555  0.00000000       0.019
  -0.02968542  0.08569444  0.00000000       0.019
   0.04947571  0.02856481  0.00000000       0.019
   0.00000000  0.05712962  0.00000000       0.019
  -0.04947571  0.02856481  0.00000000       0.019
  -0.04947571  0.08569444  0.00000000       0.019
   0.01979028 -0.06855555  0.00000000       0.019
  -0.04947571  0.05141666  0.00000000       0.019
 
 k-points in reciprocal lattice and weights: KPOINTS created by Atomic Simulation Env
   0.08333333  0.08333333  0.00000000       0.019
   0.00000000  0.08333333  0.00000000       0.019
  -0.08333333  0.00000000  0.00000000       0.019
   0.25000000  0.08333333  0.00000000       0.019
   0.16666667  0.25000000  0.00000000       0.019
  -0.08333333  0.16666667  0.00000000       0.019
   0.16666667 -0.08333333  0.00000000       0.019
  -0.08333333 -0.25000000  0.00000000       0.019
  -0.25000000 -0.16666667  0.00000000       0.019
   0.41666667  0.08333333  0.00000000       0.019
   0.33333333  0.41666667  0.00000000       0.019
  -0.08333333  0.33333333  0.00000000       0.019
   0.33333333 -0.08333333  0.00000000       0.019
  -0.08333333 -0.41666667  0.00000000       0.019
  -0.41666667 -0.33333333  0.00000000       0.019
  -0.41666667  0.08333333  0.00000000       0.019
   0.50000000 -0.41666667  0.00000000       0.019
  -0.08333333  0.50000000  0.00000000       0.019
   0.50000000 -0.08333333  0.00000000       0.019
  -0.08333333  0.41666667  0.00000000       0.019
   0.41666667  0.50000000  0.00000000       0.019
  -0.25000000  0.08333333  0.00000000       0.019
  -0.33333333 -0.25000000  0.00000000       0.019
  -0.08333333 -0.33333333  0.00000000       0.019
  -0.33333333 -0.08333333  0.00000000       0.019
  -0.08333333  0.25000000  0.00000000       0.019
   0.25000000  0.33333333  0.00000000       0.019
  -0.08333333  0.08333333  0.00000000       0.019
  -0.16666667 -0.08333333  0.00000000       0.019
  -0.08333333 -0.16666667  0.00000000       0.019
   0.25000000  0.25000000  0.00000000       0.019
   0.00000000  0.25000000  0.00000000       0.019
  -0.25000000  0.00000000  0.00000000       0.019
   0.41666667  0.25000000  0.00000000       0.019
   0.16666667  0.41666667  0.00000000       0.019
  -0.25000000  0.16666667  0.00000000       0.019
   0.16666667 -0.25000000  0.00000000       0.019
  -0.25000000 -0.41666667  0.00000000       0.019
  -0.41666667 -0.16666667  0.00000000       0.019
  -0.41666667  0.25000000  0.00000000       0.019
   0.33333333 -0.41666667  0.00000000       0.019
  -0.25000000  0.33333333  0.00000000       0.019
   0.33333333 -0.25000000  0.00000000       0.019
  -0.25000000  0.41666667  0.00000000       0.019
   0.41666667 -0.33333333  0.00000000       0.019
  -0.25000000  0.25000000  0.00000000       0.019
   0.50000000 -0.25000000  0.00000000       0.019
  -0.25000000  0.50000000  0.00000000       0.019
   0.41666667  0.41666667  0.00000000       0.019
   0.00000000  0.41666667  0.00000000       0.019
  -0.41666667 -0.00000000  0.00000000       0.019
  -0.41666667  0.41666667  0.00000000       0.019
   0.16666667 -0.41666667  0.00000000       0.019
  -0.41666667  0.16666667  0.00000000       0.019
 
 position of ions in fractional coordinates (direct lattice) 
   0.00000000  0.00000000  0.34283768
   0.33333333  0.00000000  0.34283768
   0.66666667  0.00000000  0.34283768
   0.00000000  0.33333333  0.34283768
   0.33333333  0.33333333  0.34283768
   0.66666667  0.33333333  0.34283768
   0.00000000  0.66666667  0.34283768
   0.33333333  0.66666667  0.34283768
   0.66666667  0.66666667  0.34283768
   0.11111111  0.11111111  0.44761256
   0.44444444  0.11111111  0.44761256
   0.77777778  0.11111111  0.44761256
   0.11111111  0.44444444  0.44761256
   0.44444444  0.44444444  0.44761256
   0.77777778  0.44444444  0.44761256
   0.11111111  0.77777778  0.44761256
   0.44444444  0.77777778  0.44761256
   0.77777778  0.77777778  0.44761256
   0.89066244  0.22135991  0.55083528
   0.22393181  0.22310650  0.55199432
   0.55592864  0.22143446  0.55250690
   0.89000229  0.55556716  0.55125181
   0.22397983  0.55200684  0.55300445
   0.55579777  0.55631476  0.55083341
   0.88637379  0.88952424  0.55303984
   0.22175210  0.88749662  0.55008214
   0.55727886  0.88969890  0.55198234
   0.00213814  0.99939619  0.65627260
   0.33094776  0.99526889  0.65417396
   0.66840920  0.00226880  0.66420355
   0.00308360  0.33423892  0.65638320
   0.33830544  0.33270607  0.66418967
   0.67375289  0.33752043  0.65478711
   0.00282872  0.66669848  0.65708710
   0.33570430  0.66610016  0.65625367
   0.66996470  0.66737644  0.65644398
   0.49879412  0.16293187  0.73265060
   0.56103555  0.22448420  0.76141965
   0.43506278  0.09957255  0.75972739
 
 position of ions in cartesian coordinates  (Angst):
   0.00000000  0.00000000  7.50000000
   2.80721392  0.00000000  7.50000000
   5.61442784  0.00000000  7.50000000
   1.40360696  2.43111857  7.50000000
   4.21082088  2.43111857  7.50000000
   7.01803480  2.43111857  7.50000000
   2.80721392  4.86223714  7.50000000
   5.61442784  4.86223714  7.50000000
   8.42164176  4.86223714  7.50000000
   1.40360696  0.81037286  9.79208057
   4.21082088  0.81037286  9.79208057
   7.01803480  0.81037286  9.79208057
   2.80721392  3.24149143  9.79208057
   5.61442784  3.24149143  9.79208057
   8.42164176  3.24149143  9.79208057
   4.21082088  5.67261000  9.79208057
   7.01803480  5.67261000  9.79208057
   9.82524872  5.67261000  9.79208057
   8.43294696  1.61445657 12.05020580
   2.82533494  1.62719504 12.07556117
   5.61425272  1.61500028 12.08677452
   9.83467426  4.05194895 12.05931786
   4.21067985  4.02598224 12.09765903
   7.02327153  4.05740145 12.05016491
  11.21034979  6.48761672 12.09843314
   5.60460608  6.47282855 12.03372992
   8.43956564  6.48889054 12.07529900
   4.22628502  7.28895194 14.35677808
   6.97802247  7.25885004 14.31086764
   5.63865634  0.01654718 14.53027742
   1.43338916  2.43772331 14.35919743
   4.25005288  2.42654371 14.52997377
   7.09534358  2.46165657 14.32428100
   2.83117039  4.86246917 14.37459618
   5.63200976  4.85810537 14.35636396
   8.45240537  4.86741379 14.36052718
   4.88674230  1.18832006 16.02764159
   5.67010315  1.63724313 16.65700022
   4.08322506  0.72621805 16.61997995
 


--------------------------------------------------------------------------------------------------------


 k-point  1 :   0.0833 0.0833 0.0000  plane waves:   24413
 k-point  2 :   0.0000 0.0833 0.0000  plane waves:   24413
 k-point  3 :  -0.0833 0.0000 0.0000  plane waves:   24413
 k-point  4 :   0.2500 0.0833 0.0000  plane waves:   24407
 k-point  5 :   0.1667 0.2500 0.0000  plane waves:   24407
 k-point  6 :  -0.0833 0.1667 0.0000  plane waves:   24407
 k-point  7 :   0.1667-0.0833 0.0000  plane waves:   24407
 k-point  8 :  -0.0833-0.2500 0.0000  plane waves:   24407
 k-point  9 :  -0.2500-0.1667 0.0000  plane waves:   24407
 k-point 10 :   0.4167 0.0833 0.0000  plane waves:   24416
 k-point 11 :   0.3333 0.4167 0.0000  plane waves:   24416
 k-point 12 :  -0.0833 0.3333 0.0000  plane waves:   24416
 k-point 13 :   0.3333-0.0833 0.0000  plane waves:   24416
 k-point 14 :  -0.0833-0.4167 0.0000  plane waves:   24416
 k-point 15 :  -0.4167-0.3333 0.0000  plane waves:   24416
 k-point 16 :  -0.4167 0.0833 0.0000  plane waves:   24418
 k-point 17 :   0.5000-0.4167 0.0000  plane waves:   24418
 k-point 18 :  -0.0833 0.5000 0.0000  plane waves:   24418
 k-point 19 :   0.5000-0.0833 0.0000  plane waves:   24418
 k-point 20 :  -0.0833 0.4167 0.0000  plane waves:   24418
 k-point 21 :   0.4167 0.5000 0.0000  plane waves:   24418
 k-point 22 :  -0.2500 0.0833 0.0000  plane waves:   24416
 k-point 23 :  -0.3333-0.2500 0.0000  plane waves:   24416
 k-point 24 :  -0.0833-0.3333 0.0000  plane waves:   24416
 k-point 25 :  -0.3333-0.0833 0.0000  plane waves:   24416
 k-point 26 :  -0.0833 0.2500 0.0000  plane waves:   24416
 k-point 27 :   0.2500 0.3333 0.0000  plane waves:   24416
 k-point 28 :  -0.0833 0.0833 0.0000  plane waves:   24411
 k-point 29 :  -0.1667-0.0833 0.0000  plane waves:   24411
 k-point 30 :  -0.0833-0.1667 0.0000  plane waves:   24411
 k-point 31 :   0.2500 0.2500 0.0000  plane waves:   24440
 k-point 32 :   0.0000 0.2500 0.0000  plane waves:   24440
 k-point 33 :  -0.2500 0.0000 0.0000  plane waves:   24440
 k-point 34 :   0.4167 0.2500 0.0000  plane waves:   24406
 k-point 35 :   0.1667 0.4167 0.0000  plane waves:   24406
 k-point 36 :  -0.2500 0.1667 0.0000  plane waves:   24406
 k-point 37 :   0.1667-0.2500 0.0000  plane waves:   24406
 k-point 38 :  -0.2500-0.4167 0.0000  plane waves:   24406
 k-point 39 :  -0.4167-0.1667 0.0000  plane waves:   24406
 k-point 40 :  -0.4167 0.2500 0.0000  plane waves:   24402
 k-point 41 :   0.3333-0.4167 0.0000  plane waves:   24402
 k-point 42 :  -0.2500 0.3333 0.0000  plane waves:   24402
 k-point 43 :   0.3333-0.2500 0.0000  plane waves:   24402
 k-point 44 :  -0.2500 0.4167 0.0000  plane waves:   24402
 k-point 45 :   0.4167-0.3333 0.0000  plane waves:   24402
 k-point 46 :  -0.2500 0.2500 0.0000  plane waves:   24390
 k-point 47 :   0.5000-0.2500 0.0000  plane waves:   24390
 k-point 48 :  -0.2500 0.5000 0.0000  plane waves:   24390
 k-point 49 :   0.4167 0.4167 0.0000  plane waves:   24430
 k-point 50 :   0.0000 0.4167 0.0000  plane waves:   24430
 k-point 51 :  -0.4167-0.0000 0.0000  plane waves:   24430
 k-point 52 :  -0.4167 0.4167 0.0000  plane waves:   24404
 k-point 53 :   0.1667-0.4167 0.0000  plane waves:   24404
 k-point 54 :  -0.4167 0.1667 0.0000  plane waves:   24404

 maximum and minimum number of plane-waves per node :      6146     6048

 maximum number of plane-waves:     24440
 maximum index in each direction: 
   IXMAX=   14   IYMAX=   14   IZMAX=   35
   IXMIN=  -14   IYMIN=  -14   IZMIN=  -35

 WARNING: aliasing errors must be expected set NGX to  58 to avoid them
 WARNING: aliasing errors must be expected set NGY to  58 to avoid them
 WARNING: aliasing errors must be expected set NGZ to 142 to avoid them
 aliasing errors are usually negligible using standard VASP settings
 and one can safely disregard these warnings

 real space projection operators:
  total allocation   :      10173.38 KBytes
  max/ min on nodes  :       2684.77       2422.48


 parallel 3D FFT for wavefunctions:
    minimum data exchange during FFTs selected (reduces bandwidth)
 parallel 3D FFT for charge:
    minimum data exchange during FFTs selected (reduces bandwidth)


 total amount of memory used by VASP on root node   286479. kBytes
========================================================================

   base      :      30000. kBytes
   nonlr-proj:       4668. kBytes
   fftplans  :       4497. kBytes
   grid      :       7849. kBytes
   one-center:        155. kBytes
   wavefun   :     239310. kBytes
 
     INWAV:  cpu time    0.0000: real time    0.0000
 Broyden mixing: mesh for mixing (old mesh)
   NGX = 27   NGY = 27   NGZ = 71
  (NGX  = 84   NGY  = 84   NGZ  =216)
  gives a total of  51759 points

 initial charge density was supplied:
 charge density of overlapping atoms calculated
 number of electron     366.0000000 magnetization 
 keeping initial charge density in first step


--------------------------------------------------------------------------------------------------------


 Maximum index for non-local projection operator          594
 Maximum index for augmentation-charges          859 (set IRDMAX)


--------------------------------------------------------------------------------------------------------


 First call to EWALD:  gamma=   0.161
 Maximum number of real-space cells 4x 4x 2
 Maximum number of reciprocal cells 2x 2x 5

 FEWALD executed in parallel
    FEWALD:  cpu time    0.0030: real time    0.0028


----------------------------------------- Iteration    1(   1)  ---------------------------------------


    POTLOK:  cpu time    0.3559: real time    0.4162
    SETDIJ:  cpu time    0.0080: real time    0.0077
     EDDAV:  cpu time  136.6042: real time  139.0259
       DOS:  cpu time    0.0030: real time    0.0024
    --------------------------------------------
      LOOP:  cpu time  136.9722: real time  139.5100

 eigenvalue-minimisations  : 23840
 total energy-change (2. order) : 0.2185603E+04  (-0.1448780E+05)
 number of electron     366.0000000 magnetization 
 augmentation part      366.0000000 magnetization 

 Free energy of the ion-electron system (eV)
  ---------------------------------------------------
  alpha Z        PSCENC =       939.05130981
  Ewald energy   TEWEN  =     92555.03492141
  -Hartree energ DENC   =   -120807.49744894
  -exchange      EXHF   =         0.00000000
  -V(xc)+E(xc)   XCENC  =       138.89050639
  PAW double counting   =     25173.23737667   -24155.62788196
  entropy T*S    EENTRO =        -0.55451657
  eigenvalues    EBANDS =      1922.95403755
  atomic energy  EATOM  =     26420.11475431
  Solvation  Ediel_sol  =         0.00000000
  ---------------------------------------------------
  free energy    TOTEN  =      2185.60305866 eV

  energy without entropy =     2186.15757524  energy(sigma->0) =     2185.88031695


--------------------------------------------------------------------------------------------------------




----------------------------------------- Iteration    1(   2)  ---------------------------------------


     EDDAV:  cpu time  160.0467: real time  161.6768
       DOS:  cpu time    0.0030: real time    0.0027
    --------------------------------------------
      LOOP:  cpu time  160.0517: real time  161.7493

 eigenvalue-minimisations  : 27900
 total energy-change (2. order) :-0.2264863E+04  (-0.2100909E+04)
 number of electron     366.0000000 magnetization 
 augmentation part      366.0000000 magnetization 

 Free energy of the ion-electron system (eV)
  ---------------------------------------------------
  alpha Z        PSCENC =       939.05130981
  Ewald energy   TEWEN  =     92555.03492141
  -Hartree energ DENC   =   -120807.49744894
  -exchange      EXHF   =         0.00000000
  -V(xc)+E(xc)   XCENC  =       138.89050639
  PAW double counting   =     25173.23737667   -24155.62788196
  entropy T*S    EENTRO =        -1.05149323
  eigenvalues    EBANDS =      -341.41192460
  atomic energy  EATOM  =     26420.11475431
  Solvation  Ediel_sol  =         0.00000000
  ---------------------------------------------------
  free energy    TOTEN  =       -79.25988014 eV

  energy without entropy =      -78.20838691  energy(sigma->0) =      -78.73413352


--------------------------------------------------------------------------------------------------------




----------------------------------------- Iteration    1(   3)  ---------------------------------------


     EDDAV:  cpu time  164.7010: real time  166.4551
       DOS:  cpu time    0.0030: real time    0.0031
    --------------------------------------------
      LOOP:  cpu time  164.7060: real time  166.5368

 eigenvalue-minimisations  : 28650
 total energy-change (2. order) :-0.1561617E+03  (-0.1408687E+03)
 number of electron     366.0000000 magnetization 
 augmentation part      366.0000000 magnetization 

 Free energy of the ion-electron system (eV)
  ---------------------------------------------------
  alpha Z        PSCENC =       939.05130981
  Ewald energy   TEWEN  =     92555.03492141
  -Hartree energ DENC   =   -120807.49744894
  -exchange      EXHF   =         0.00000000
  -V(xc)+E(xc)   XCENC  =       138.89050639
  PAW double counting   =     25173.23737667   -24155.62788196
  entropy T*S    EENTRO =        -1.88753095
  eigenvalues    EBANDS =      -496.73758495
  atomic energy  EATOM  =     26420.11475431
  Solvation  Ediel_sol  =         0.00000000
  ---------------------------------------------------
  free energy    TOTEN  =      -235.42157821 eV

  energy without entropy =     -233.53404726  energy(sigma->0) =     -234.47781274


--------------------------------------------------------------------------------------------------------




----------------------------------------- Iteration    1(   4)  ---------------------------------------


     EDDAV:  cpu time  168.6794: real time  169.5843
       DOS:  cpu time    0.0030: real time    0.0033
    CHARGE:  cpu time    2.0187: real time    2.0175
    MIXING:  cpu time    0.0030: real time    0.0029
    --------------------------------------------
      LOOP:  cpu time  170.7050: real time  171.6958

 eigenvalue-minimisations  : 30200
 total energy-change (2. order) :-0.6837036E+01  (-0.6594328E+01)
 number of electron     366.0000022 magnetization 
 augmentation part      104.6489347 magnetization 

 Broyden mixing:
  rms(total) = 0.62967E+01    rms(broyden)= 0.62967E+01
  rms(prec ) = 0.64086E+01
  weight for this iteration     100.00

 Free energy of the ion-electron system (eV)
  ---------------------------------------------------
  alpha Z        PSCENC =       939.05130981
  Ewald energy   TEWEN  =     92555.03492141
  -Hartree energ DENC   =   -120807.49744894
  -exchange      EXHF   =         0.00000000
  -V(xc)+E(xc)   XCENC  =       138.89050639
  PAW double counting   =     25173.23737667   -24155.62788196
  entropy T*S    EENTRO =        -1.94974580
  eigenvalues    EBANDS =      -503.51240631
  atomic energy  EATOM  =     26420.11475431
  Solvation  Ediel_sol  =         0.00000000
  ---------------------------------------------------
  free energy    TOTEN  =      -242.25861443 eV

  energy without entropy =     -240.30886862  energy(sigma->0) =     -241.28374153


--------------------------------------------------------------------------------------------------------




----------------------------------------- Iteration    1(   5)  ---------------------------------------


    POTLOK:  cpu time    0.1430: real time    0.1545
    SETDIJ:  cpu time    0.0080: real time    0.0076
    EDDIAG:  cpu time   12.5591: real time   12.5580
  RMM-DIIS:  cpu time   45.7880: real time   46.2182
    ORTHCH:  cpu time    3.6974: real time    3.6964
       DOS:  cpu time    0.0030: real time    0.0034
    CHARGE:  cpu time    1.9647: real time    1.9637
    MIXING:  cpu time    0.0030: real time    0.0031
    --------------------------------------------
      LOOP:  cpu time   64.1662: real time   64.6284

 eigenvalue-minimisations  : 25150
 total energy-change (2. order) : 0.1095324E+02  (-0.5203932E+01)
 number of electron     366.0000048 magnetization 
 augmentation part      111.1523991 magnetization 

 Broyden mixing:
  rms(total) = 0.43240E+01    rms(broyden)= 0.43240E+01
  rms(prec ) = 0.45846E+01
  weight for this iteration     100.00

 eigenvalues of (default mixing * dielectric matrix)
  average eigenvalue GAMMA=   1.3187
  1.3187

 Free energy of the ion-electron system (eV)
  ---------------------------------------------------
  alpha Z        PSCENC =       939.05130981
  Ewald energy   TEWEN  =     92555.03492141
  -Hartree energ DENC   =   -120377.36467812
  -exchange      EXHF   =         0.00000000
  -V(xc)+E(xc)   XCENC  =       130.01058691
  PAW double counting   =     27879.05542580   -26914.14764302
  entropy T*S    EENTRO =        -2.04698813
  eigenvalues    EBANDS =      -861.01306582
  atomic energy  EATOM  =     26420.11475431
  Solvation  Ediel_sol  =         0.00000000
  ---------------------------------------------------
  free energy    TOTEN  =      -231.30537685 eV

  energy without entropy =     -229.25838872  energy(sigma->0) =     -230.28188279


--------------------------------------------------------------------------------------------------------




----------------------------------------- Iteration    1(   6)  ---------------------------------------


    POTLOK:  cpu time    0.1880: real time    0.2987
    SETDIJ:  cpu time    0.0080: real time    0.0075
    EDDIAG:  cpu time   12.7811: real time   12.7787
  RMM-DIIS:  cpu time   49.8374: real time   50.5716
    ORTHCH:  cpu time    3.0785: real time    3.1447
       DOS:  cpu time    0.0030: real time    0.0028
    CHARGE:  cpu time    2.0417: real time    2.0417
    MIXING:  cpu time    0.0030: real time    0.0029
    --------------------------------------------
      LOOP:  cpu time   67.9427: real time   68.9284

 eigenvalue-minimisations  : 24962
 total energy-change (2. order) :-0.3942248E+02  (-0.7305534E+01)
 number of electron     365.9999990 magnetization 
 augmentation part      109.1532694 magnetization 

 Broyden mixing:
  rms(total) = 0.55547E+01    rms(broyden)= 0.55545E+01
  rms(prec ) = 0.67354E+01
  weight for this iteration     100.00

 eigenvalues of (default mixing * dielectric matrix)
  average eigenvalue GAMMA=   1.1380
  1.9956  0.2804

 Free energy of the ion-electron system (eV)
  ---------------------------------------------------
  alpha Z        PSCENC =       939.05130981
  Ewald energy   TEWEN  =     92555.03492141
  -Hartree energ DENC   =   -120682.40473294
  -exchange      EXHF   =         0.00000000
  -V(xc)+E(xc)   XCENC  =       127.53672021
  PAW double counting   =     29813.73241803   -28869.53046707
  entropy T*S    EENTRO =        -1.21157653
  eigenvalues    EBANDS =      -573.05120372
  atomic energy  EATOM  =     26420.11475431
  Solvation  Ediel_sol  =         0.00000000
  ---------------------------------------------------
  free energy    TOTEN  =      -270.72785649 eV

  energy without entropy =     -269.51627995  energy(sigma->0) =     -270.12206822


--------------------------------------------------------------------------------------------------------




----------------------------------------- Iteration    1(   7)  ---------------------------------------


    POTLOK:  cpu time    0.5829: real time    0.5830
    SETDIJ:  cpu time    0.0070: real time    0.0074
    EDDIAG:  cpu time   12.4771: real time   12.4983
  RMM-DIIS:  cpu time   45.7171: real time   45.8491
    ORTHCH:  cpu time    3.3755: real time    3.3754
       DOS:  cpu time    0.0030: real time    0.0033
    CHARGE:  cpu time    1.9767: real time    1.9763
    MIXING:  cpu time    0.0030: real time    0.0032
    --------------------------------------------
      LOOP:  cpu time   64.1432: real time   64.4143

 eigenvalue-minimisations  : 24392
 total energy-change (2. order) : 0.4307450E+02  (-0.2644012E+01)
 number of electron     366.0000019 magnetization 
 augmentation part      112.5102755 magnetization 

 Broyden mixing:
  rms(total) = 0.13708E+01    rms(broyden)= 0.13706E+01
  rms(prec ) = 0.16816E+01
  weight for this iteration     100.00

 eigenvalues of (default mixing * dielectric matrix)
  average eigenvalue GAMMA=   1.0463
  2.0204  0.8163  0.3021

 Free energy of the ion-electron system (eV)
  ---------------------------------------------------
  alpha Z        PSCENC =       939.05130981
  Ewald energy   TEWEN  =     92555.03492141
  -Hartree energ DENC   =   -120417.11317392
  -exchange      EXHF   =         0.00000000
  -V(xc)+E(xc)   XCENC  =       125.99649358
  PAW double counting   =     31524.29571618   -30602.60334788
  entropy T*S    EENTRO =        -1.99410105
  eigenvalues    EBANDS =      -770.43593175
  atomic energy  EATOM  =     26420.11475431
  Solvation  Ediel_sol  =         0.00000000
  ---------------------------------------------------
  free energy    TOTEN  =      -227.65335931 eV

  energy without entropy =     -225.65925826  energy(sigma->0) =     -226.65630879


--------------------------------------------------------------------------------------------------------




----------------------------------------- Iteration    1(   8)  ---------------------------------------


    POTLOK:  cpu time    0.0790: real time    0.0798
    SETDIJ:  cpu time    0.0080: real time    0.0074
    EDDIAG:  cpu time   13.1680: real time   13.1649
  RMM-DIIS:  cpu time   51.8731: real time   52.3520
    ORTHCH:  cpu time    3.3635: real time    3.4556
       DOS:  cpu time    0.0030: real time    0.0036
    CHARGE:  cpu time    2.0317: real time    2.0306
    MIXING:  cpu time    0.0030: real time    0.0030
    --------------------------------------------
      LOOP:  cpu time   70.5303: real time   71.1121

 eigenvalue-minimisations  : 25132
 total energy-change (2. order) :-0.1364945E+02  (-0.1594126E+01)
 number of electron     366.0000020 magnetization 
 augmentation part      112.0045481 magnetization 

 Broyden mixing:
  rms(total) = 0.35191E+01    rms(broyden)= 0.35190E+01
  rms(prec ) = 0.52300E+01
  weight for this iteration     100.00

 eigenvalues of (default mixing * dielectric matrix)
  average eigenvalue GAMMA=   0.9063
  2.1223  1.0350  0.2914  0.1766

 Free energy of the ion-electron system (eV)
  ---------------------------------------------------
  alpha Z        PSCENC =       939.05130981
  Ewald energy   TEWEN  =     92555.03492141
  -Hartree energ DENC   =   -120423.84821199
  -exchange      EXHF   =         0.00000000
  -V(xc)+E(xc)   XCENC  =       126.71223215
  PAW double counting   =     31782.84256597   -30861.69917157
  entropy T*S    EENTRO =        -1.34826020
  eigenvalues    EBANDS =      -778.16294489
  atomic energy  EATOM  =     26420.11475431
  Solvation  Ediel_sol  =         0.00000000
  ---------------------------------------------------
  free energy    TOTEN  =      -241.30280499 eV

  energy without entropy =     -239.95454479  energy(sigma->0) =     -240.62867489


--------------------------------------------------------------------------------------------------------




----------------------------------------- Iteration    1(   9)  ---------------------------------------


    POTLOK:  cpu time    0.1440: real time    0.1442
    SETDIJ:  cpu time    0.0070: real time    0.0074
    EDDIAG:  cpu time   24.3703: real time   24.4103
  RMM-DIIS:  cpu time   49.2755: real time   49.8356
    ORTHCH:  cpu time    3.3255: real time    3.3666
       DOS:  cpu time    0.0030: real time    0.0033
    CHARGE:  cpu time    1.9587: real time    1.9589
    MIXING:  cpu time    0.0050: real time    0.0033
    --------------------------------------------
      LOOP:  cpu time   79.0900: real time   79.7866

 eigenvalue-minimisations  : 25376
 total energy-change (2. order) : 0.1042843E+02  (-0.4991788E+00)
 number of electron     366.0000044 magnetization 
 augmentation part      112.1230170 magnetization 

 Broyden mixing:
  rms(total) = 0.22397E+01    rms(broyden)= 0.22395E+01
  rms(prec ) = 0.31539E+01
  weight for this iteration     100.00

 eigenvalues of (default mixing * dielectric matrix)
  average eigenvalue GAMMA=   0.7948
  2.2010  1.1060  0.2748  0.2748  0.1172

 Free energy of the ion-electron system (eV)
  ---------------------------------------------------
  alpha Z        PSCENC =       939.05130981
  Ewald energy   TEWEN  =     92555.03492141
  -Hartree energ DENC   =   -120431.82021949
  -exchange      EXHF   =         0.00000000
  -V(xc)+E(xc)   XCENC  =       126.94749941
  PAW double counting   =     31964.21829329   -31044.13106059
  entropy T*S    EENTRO =        -1.88920760
  eigenvalues    EBANDS =      -758.40066060
  atomic energy  EATOM  =     26420.11475431
  Solvation  Ediel_sol  =         0.00000000
  ---------------------------------------------------
  free energy    TOTEN  =      -230.87437006 eV

  energy without entropy =     -228.98516245  energy(sigma->0) =     -229.92976625


--------------------------------------------------------------------------------------------------------




----------------------------------------- Iteration    1(  10)  ---------------------------------------


    POTLOK:  cpu time    1.4728: real time    1.4718
    SETDIJ:  cpu time    0.1870: real time    0.1871
    EDDIAG:  cpu time   14.0949: real time   14.0944
  RMM-DIIS:  cpu time   45.0801: real time   45.2280
    ORTHCH:  cpu time    3.2175: real time    3.2278
       DOS:  cpu time    0.0030: real time    0.0032
    CHARGE:  cpu time    2.0587: real time    2.0574
    MIXING:  cpu time    0.0030: real time    0.0032
    --------------------------------------------
      LOOP:  cpu time   66.1169: real time   66.3072

 eigenvalue-minimisations  : 24554
 total energy-change (2. order) : 0.4917291E+01  (-0.2780556E+00)
 number of electron     366.0000031 magnetization 
 augmentation part      112.0707896 magnetization 

 Broyden mixing:
  rms(total) = 0.68562E+00    rms(broyden)= 0.68550E+00
  rms(prec ) = 0.80360E+00
  weight for this iteration     100.00

 eigenvalues of (default mixing * dielectric matrix)
  average eigenvalue GAMMA=   0.7234
  2.1688  1.0825  0.3409  0.3409  0.2993  0.1081

 Free energy of the ion-electron system (eV)
  ---------------------------------------------------
  alpha Z        PSCENC =       939.05130981
  Ewald energy   TEWEN  =     92555.03492141
  -Hartree energ DENC   =   -120441.12552872
  -exchange      EXHF   =         0.00000000
  -V(xc)+E(xc)   XCENC  =       126.98679921
  PAW double counting   =     32096.22876314   -31177.32161738
  entropy T*S    EENTRO =        -2.06718923
  eigenvalues    EBANDS =      -742.85929161
  atomic energy  EATOM  =     26420.11475431
  Solvation  Ediel_sol  =         0.00000000
  ---------------------------------------------------
  free energy    TOTEN  =      -225.95707905 eV

  energy without entropy =     -223.88988982  energy(sigma->0) =     -224.92348444


--------------------------------------------------------------------------------------------------------




----------------------------------------- Iteration    1(  11)  ---------------------------------------


    POTLOK:  cpu time    0.0630: real time    0.0632
    SETDIJ:  cpu time    0.0070: real time    0.0074
    EDDIAG:  cpu time   13.1140: real time   13.1219
  RMM-DIIS:  cpu time   49.2355: real time   49.8903
    ORTHCH:  cpu time    3.3015: real time    3.3009
       DOS:  cpu time    0.0030: real time    0.0032
    CHARGE:  cpu time    2.0047: real time    2.0050
    MIXING:  cpu time    0.0030: real time    0.0034
    --------------------------------------------
      LOOP:  cpu time   67.7327: real time   68.4094

 eigenvalue-minimisations  : 25373
 total energy-change (2. order) : 0.2553710E+00  (-0.5201398E-01)
 number of electron     366.0000029 magnetization 
 augmentation part      112.0755985 magnetization 

 Broyden mixing:
  rms(total) = 0.43923E+00    rms(broyden)= 0.43921E+00
  rms(prec ) = 0.53057E+00
  weight for this iteration     100.00

 eigenvalues of (default mixing * dielectric matrix)
  average eigenvalue GAMMA=   0.6951
  2.1393  1.0476  0.5061  0.5061  0.2783  0.2783  0.1098

 Free energy of the ion-electron system (eV)
  ---------------------------------------------------
  alpha Z        PSCENC =       939.05130981
  Ewald energy   TEWEN  =     92555.03492141
  -Hartree energ DENC   =   -120443.19178730
  -exchange      EXHF   =         0.00000000
  -V(xc)+E(xc)   XCENC  =       127.03100953
  PAW double counting   =     32067.82652477   -31148.64859238
  entropy T*S    EENTRO =        -2.10654212
  eigenvalues    EBANDS =      -740.81330610
  atomic energy  EATOM  =     26420.11475431
  Solvation  Ediel_sol  =         0.00000000
  ---------------------------------------------------
  free energy    TOTEN  =      -225.70170806 eV

  energy without entropy =     -223.59516594  energy(sigma->0) =     -224.64843700


--------------------------------------------------------------------------------------------------------




----------------------------------------- Iteration    1(  12)  ---------------------------------------


    POTLOK:  cpu time    0.3739: real time    0.3902
    SETDIJ:  cpu time    0.0900: real time    0.0906
    EDDIAG:  cpu time   12.6041: real time   12.6021
  RMM-DIIS:  cpu time   48.6346: real time   49.0795
    ORTHCH:  cpu time    3.3975: real time    3.4098
       DOS:  cpu time    0.0030: real time    0.0034
    CHARGE:  cpu time    1.9577: real time    1.9578
    MIXING:  cpu time    0.0040: real time    0.0040
    --------------------------------------------
      LOOP:  cpu time   67.0668: real time   67.6140

 eigenvalue-minimisations  : 25887
 total energy-change (2. order) : 0.7714076E-01  (-0.1462297E-01)
 number of electron     366.0000030 magnetization 
 augmentation part      112.0532610 magnetization 

 Broyden mixing:
  rms(total) = 0.29378E+00    rms(broyden)= 0.29377E+00
  rms(prec ) = 0.33158E+00
  weight for this iteration     100.00

 eigenvalues of (default mixing * dielectric matrix)
  average eigenvalue GAMMA=   0.7220
  2.1806  0.9467  0.8295  0.8295  0.3098  0.3098  0.2603  0.1098

 Free energy of the ion-electron system (eV)
  ---------------------------------------------------
  alpha Z        PSCENC =       939.05130981
  Ewald energy   TEWEN  =     92555.03492141
  -Hartree energ DENC   =   -120446.68729570
  -exchange      EXHF   =         0.00000000
  -V(xc)+E(xc)   XCENC  =       127.09849336
  PAW double counting   =     32041.74059738   -31122.29114374
  entropy T*S    EENTRO =        -2.11248160
  eigenvalues    EBANDS =      -737.57372254
  atomic energy  EATOM  =     26420.11475431
  Solvation  Ediel_sol  =         0.00000000
  ---------------------------------------------------
  free energy    TOTEN  =      -225.62456731 eV

  energy without entropy =     -223.51208571  energy(sigma->0) =     -224.56832651


--------------------------------------------------------------------------------------------------------




----------------------------------------- Iteration    1(  13)  ---------------------------------------


    POTLOK:  cpu time    1.3928: real time    2.0288
    SETDIJ:  cpu time    0.1720: real time    0.1812
    EDDIAG:  cpu time   13.0280: real time   13.4736
  RMM-DIIS:  cpu time   51.2762: real time   51.8290
    ORTHCH:  cpu time    3.6184: real time    3.6399
       DOS:  cpu time    0.0030: real time    0.0032
    CHARGE:  cpu time    1.9307: real time    1.9386
    MIXING:  cpu time    0.0040: real time    0.0039
    --------------------------------------------
      LOOP:  cpu time   71.4281: real time   73.1757

 eigenvalue-minimisations  : 25077
 total energy-change (2. order) : 0.2266358E-01  (-0.7796028E-02)
 number of electron     366.0000028 magnetization 
 augmentation part      112.0249771 magnetization 

 Broyden mixing:
  rms(total) = 0.20102E+00    rms(broyden)= 0.20101E+00
  rms(prec ) = 0.22421E+00
  weight for this iteration     100.00

 eigenvalues of (default mixing * dielectric matrix)
  average eigenvalue GAMMA=   0.7664
  2.2395  1.3003  1.3003  0.7304  0.1098  0.3719  0.3032  0.3032  0.2390

 Free energy of the ion-electron system (eV)
  ---------------------------------------------------
  alpha Z        PSCENC =       939.05130981
  Ewald energy   TEWEN  =     92555.03492141
  -Hartree energ DENC   =   -120455.17620602
  -exchange      EXHF   =         0.00000000
  -V(xc)+E(xc)   XCENC  =       127.13539579
  PAW double counting   =     32053.20463531   -31133.91672759
  entropy T*S    EENTRO =        -2.11182552
  eigenvalues    EBANDS =      -728.93816123
  atomic energy  EATOM  =     26420.11475431
  Solvation  Ediel_sol  =         0.00000000
  ---------------------------------------------------
  free energy    TOTEN  =      -225.60190373 eV

  energy without entropy =     -223.49007821  energy(sigma->0) =     -224.54599097


--------------------------------------------------------------------------------------------------------




----------------------------------------- Iteration    1(  14)  ---------------------------------------


    POTLOK:  cpu time    0.2920: real time    0.3688
    SETDIJ:  cpu time    0.0080: real time    0.0076
    EDDIAG:  cpu time   13.2320: real time   13.2498
  RMM-DIIS:  cpu time   46.9209: real time   46.9803
    ORTHCH:  cpu time    3.5485: real time    3.5478
       DOS:  cpu time    0.0040: real time    0.0034
    CHARGE:  cpu time    2.2417: real time    2.2596
    MIXING:  cpu time    0.0040: real time    0.0043
    --------------------------------------------
      LOOP:  cpu time   66.2519: real time   66.5004

 eigenvalue-minimisations  : 25094
 total energy-change (2. order) : 0.2162924E-01  (-0.5057845E-02)
 number of electron     366.0000027 magnetization 
 augmentation part      111.9896799 magnetization 

 Broyden mixing:
  rms(total) = 0.10388E+00    rms(broyden)= 0.10387E+00
  rms(prec ) = 0.12194E+00
  weight for this iteration     100.00

 eigenvalues of (default mixing * dielectric matrix)
  average eigenvalue GAMMA=   0.7654
  2.0948  1.7449  1.2796  0.7197  0.5673  0.1098  0.3097  0.3097  0.2724  0.2464

 Free energy of the ion-electron system (eV)
  ---------------------------------------------------
  alpha Z        PSCENC =       939.05130981
  Ewald energy   TEWEN  =     92555.03492141
  -Hartree energ DENC   =   -120465.81956160
  -exchange      EXHF   =         0.00000000
  -V(xc)+E(xc)   XCENC  =       127.20342952
  PAW double counting   =     32051.87032513   -31132.58193725
  entropy T*S    EENTRO =        -2.11125554
  eigenvalues    EBANDS =      -718.34226029
  atomic energy  EATOM  =     26420.11475431
  Solvation  Ediel_sol  =         0.00000000
  ---------------------------------------------------
  free energy    TOTEN  =      -225.58027449 eV

  energy without entropy =     -223.46901895  energy(sigma->0) =     -224.52464672


--------------------------------------------------------------------------------------------------------




----------------------------------------- Iteration    1(  15)  ---------------------------------------


    POTLOK:  cpu time    0.0630: real time    0.0630
    SETDIJ:  cpu time    0.0070: real time    0.0076
    EDDIAG:  cpu time   13.1000: real time   13.1967
  RMM-DIIS:  cpu time   47.5628: real time   48.0624
    ORTHCH:  cpu time    3.4535: real time    3.4855
       DOS:  cpu time    0.0040: real time    0.0034
    CHARGE:  cpu time    1.9917: real time    1.9914
    MIXING:  cpu time    0.0040: real time    0.0044
    --------------------------------------------
      LOOP:  cpu time   66.1869: real time   66.8380

 eigenvalue-minimisations  : 25187
 total energy-change (2. order) : 0.8370993E-02  (-0.1141210E-02)
 number of electron     366.0000027 magnetization 
 augmentation part      111.9736349 magnetization 

 Broyden mixing:
  rms(total) = 0.56662E-01    rms(broyden)= 0.56659E-01
  rms(prec ) = 0.70838E-01
  weight for this iteration     100.00

 eigenvalues of (default mixing * dielectric matrix)
  average eigenvalue GAMMA=   0.7951
  2.2200  2.2200  1.2007  0.7390  0.7390  0.1098  0.3809  0.3042  0.3042  0.2900
  0.2383

 Free energy of the ion-electron system (eV)
  ---------------------------------------------------
  alpha Z        PSCENC =       939.05130981
  Ewald energy   TEWEN  =     92555.03492141
  -Hartree energ DENC   =   -120470.61137352
  -exchange      EXHF   =         0.00000000
  -V(xc)+E(xc)   XCENC  =       127.25478598
  PAW double counting   =     32033.75059924   -31114.23122508
  entropy T*S    EENTRO =        -2.11347997
  eigenvalues    EBANDS =      -713.82219568
  atomic energy  EATOM  =     26420.11475431
  Solvation  Ediel_sol  =         0.00000000
  ---------------------------------------------------
  free energy    TOTEN  =      -225.57190350 eV

  energy without entropy =     -223.45842353  energy(sigma->0) =     -224.51516351


--------------------------------------------------------------------------------------------------------




----------------------------------------- Iteration    1(  16)  ---------------------------------------


    POTLOK:  cpu time    0.0640: real time    0.0639
    SETDIJ:  cpu time    0.0070: real time    0.0075
    EDDIAG:  cpu time   13.0120: real time   13.0114
  RMM-DIIS:  cpu time   47.3568: real time   47.5141
    ORTHCH:  cpu time    3.4565: real time    3.4566
       DOS:  cpu time    0.0040: real time    0.0032
    CHARGE:  cpu time    2.0477: real time    2.0489
    MIXING:  cpu time    0.0040: real time    0.0045
    --------------------------------------------
      LOOP:  cpu time   65.9560: real time   66.1546

 eigenvalue-minimisations  : 25319
 total energy-change (2. order) : 0.2277852E-02  (-0.3737928E-03)
 number of electron     366.0000028 magnetization 
 augmentation part      111.9638560 magnetization 

 Broyden mixing:
  rms(total) = 0.30158E-01    rms(broyden)= 0.30155E-01
  rms(prec ) = 0.33869E-01
  weight for this iteration     100.00

 eigenvalues of (default mixing * dielectric matrix)
  average eigenvalue GAMMA=   0.8204
  2.4348  2.4348  1.2188  0.8400  0.8400  0.5272  0.1098  0.3100  0.3100  0.3033
  0.2806  0.2352

 Free energy of the ion-electron system (eV)
  ---------------------------------------------------
  alpha Z        PSCENC =       939.05130981
  Ewald energy   TEWEN  =     92555.03492141
  -Hartree energ DENC   =   -120474.78715872
  -exchange      EXHF   =         0.00000000
  -V(xc)+E(xc)   XCENC  =       127.29599879
  PAW double counting   =     32016.13961315   -31096.40623356
  entropy T*S    EENTRO =        -2.11566996
  eigenvalues    EBANDS =      -709.89716089
  atomic energy  EATOM  =     26420.11475431
  Solvation  Ediel_sol  =         0.00000000
  ---------------------------------------------------
  free energy    TOTEN  =      -225.56962564 eV

  energy without entropy =     -223.45395568  energy(sigma->0) =     -224.51179066


--------------------------------------------------------------------------------------------------------




[...]
    148       0.1004      1.99999
    149       0.1396      1.99998
    150       0.1747      1.99998
    151       0.1935      1.99997
    152       0.2252      1.99996
    153       0.2388      1.99995
    154       0.2560      1.99994
    155       0.2745      1.99993
    156       0.3693      1.99983
    157       0.4296      1.99968
    158       0.4946      1.99940
    159       0.5697      1.99872
    160       0.6016      1.99824
    161       0.6640      1.99672
    162       0.6756      1.99632
    163       0.7082      1.99490
    164       0.7361      1.99326
    165       0.7885      1.98865
    166       0.7934      1.98807
    167       0.8548      1.97808
    168       0.9348      1.95188
    169       1.0010      1.90874
    170       1.0025      1.90740
    171       1.0297      1.88020
    172       1.0589      1.84280
    173       1.0878      1.79553
    174       1.0978      1.77640
    175       1.1265      1.71277
    176       1.1807      1.55225
    177       1.2283      1.36570
    178       1.2539      1.25022
    179       1.2572      1.23480
    180       1.2689      1.17888
    181       1.2962      1.04404
    182       1.3191      0.92961
    183       1.3231      0.91005
    184       1.4388      0.41580
    185       1.4935      0.26366
    186       1.5153      0.21771
    187       1.5506      0.15802
    188       1.5622      0.14204
    189       1.5757      0.12517
    190       1.5821      0.11784
    191       1.6194      0.08265
    192       1.6432      0.06578
    193       1.6906      0.04143
    194       2.1864      0.00030
    195       2.4143      0.00003
    196       2.7624      0.00000
    197       2.7712      0.00000
    198       2.7805      0.00000
    199       2.8420      0.00000
    200       3.0170      0.00000
    201       3.1379      0.00000
    202       3.2997      0.00000
    203       3.3921      0.00000
    204       3.5831      0.00000
    205       3.6322      0.00000
    206       3.7736      0.00000
    207       4.0658      0.00000
    208       4.1411      0.00000
    209       4.1877      0.00000
    210       4.2200      0.00000
    211       4.3554      0.00000
    212       4.4276      0.00000
    213       4.5857      0.00000
    214       4.7117      0.00000
    215       4.8842      0.00000
    216       4.9928      0.00000
    217       5.1198      0.00000
    218       5.6434      0.00000
    219       5.9372      0.00000
    220       6.0099      0.00000


--------------------------------------------------------------------------------------------------------


 soft charge-density along one line, spin component           1
         0         1         2         3         4         5         6         7         8         9
 total charge-density along one line
 
 pseudopotential strength for first ion, spin component:           1
 -6.083   0.000   0.000  -0.012   0.000  -6.198   0.000   0.000
  0.000  -5.979  -0.001   0.000  -0.010   0.000  -6.096  -0.001
  0.000  -0.001  -5.975   0.000  -0.001   0.000  -0.001  -6.093
 -0.012   0.000   0.000  -5.979  -0.000  -0.012   0.000   0.000
  0.000  -0.010  -0.001  -0.000  -6.083   0.000  -0.010  -0.001
 -6.198   0.000   0.000  -0.012   0.000  -6.295   0.000   0.000
  0.000  -6.096  -0.001   0.000  -0.010   0.000  -6.197  -0.001
  0.000  -0.001  -6.093   0.000  -0.001   0.000  -0.001  -6.194
 -0.012   0.000   0.000  -6.096  -0.000  -0.011   0.000   0.000
  0.000  -0.010  -0.001  -0.000  -6.197   0.000  -0.010  -0.001
 -0.000   0.000  -0.032  -0.000  -0.000  -0.000   0.000  -0.031
 -0.000   0.001  -0.047  -0.000  -0.000  -0.000   0.001  -0.046
  0.000  -0.004   0.000   0.000   0.001   0.000  -0.004   0.000
  0.000  -0.000  -0.008   0.000  -0.000   0.000  -0.000  -0.008
  0.000   0.000  -0.000  -0.004   0.000   0.000   0.000  -0.000
  0.000  -0.003   0.000   0.000   0.001   0.000  -0.002   0.000
  0.000  -0.001  -0.009   0.000  -0.000   0.000  -0.001  -0.008
  0.000   0.000  -0.000  -0.003   0.000   0.000   0.000  -0.000
 total augmentation occupancy for first ion, spin component:           1
  3.152   0.007   0.012  -0.205   0.005  -2.022  -0.005  -0.007   0.032  -0.003   0.002   0.000  -0.001  -0.001  -0.049   0.000
  0.007   3.911  -0.028   0.010  -0.201  -0.005  -2.092   0.018  -0.006   0.037  -0.011   0.002  -0.258   0.005   0.000   0.012
  0.012  -0.028   4.149   0.019  -0.018  -0.008   0.019  -2.559  -0.013   0.013   0.758  -0.119   0.005  -0.309  -0.005   0.000
 -0.205   0.010   0.019   3.888  -0.009   0.039  -0.006  -0.013  -2.077   0.006   0.001   0.000  -0.001  -0.004  -0.255  -0.000
  0.005  -0.201  -0.018  -0.009   3.157  -0.003   0.029   0.012   0.005  -2.025  -0.001  -0.001  -0.052   0.003  -0.003   0.003
 -2.022  -0.005  -0.008   0.039  -0.003   2.534   0.003   0.005   0.085   0.002  -0.002  -0.000   0.000   0.001   0.049   0.000
 -0.005  -2.092   0.019  -0.006   0.029   0.003   2.102  -0.012   0.004   0.086   0.007  -0.000   0.246  -0.003   0.000  -0.017
 -0.007   0.018  -2.559  -0.013   0.012   0.005  -0.012   2.730   0.009  -0.008  -0.659   0.084  -0.003   0.366   0.003   0.000
  0.032  -0.006  -0.013  -2.077   0.005   0.085   0.004   0.009   2.092  -0.003  -0.001  -0.000   0.000   0.002   0.245   0.000
 -0.003   0.037   0.013   0.006  -2.025   0.002   0.086  -0.008  -0.003   2.536   0.001   0.000   0.050  -0.002   0.002  -0.003
  0.002  -0.011   0.758   0.001  -0.001  -0.002   0.007  -0.659  -0.001   0.001   2.234  -0.446   0.002   0.186  -0.001  -0.000
  0.000   0.002  -0.119   0.000  -0.001  -0.000  -0.000   0.084  -0.000   0.000  -0.446   0.110   0.000  -0.065  -0.000   0.000
 -0.001  -0.258   0.005  -0.001  -0.052   0.000   0.246  -0.003   0.000   0.050   0.002   0.000   0.260  -0.001   0.001  -0.014
 -0.001   0.005  -0.309  -0.004   0.003   0.001  -0.003   0.366   0.002  -0.002   0.186  -0.065  -0.001   0.147   0.001   0.000
 -0.049   0.000  -0.005  -0.255  -0.003   0.049   0.000   0.003   0.245   0.002  -0.001  -0.000   0.001   0.001   0.260  -0.000
  0.000   0.012   0.000  -0.000   0.003   0.000  -0.017   0.000   0.000  -0.003  -0.000   0.000  -0.014   0.000  -0.000   0.001
 -0.000  -0.001   0.003   0.000   0.000   0.000  -0.000  -0.019  -0.000  -0.000  -0.018   0.005   0.000  -0.009  -0.000   0.000
  0.003  -0.000   0.000   0.012   0.000  -0.003   0.000  -0.000  -0.017   0.000   0.000  -0.000  -0.000  -0.000  -0.014   0.000


------------------------ aborting loop because EDIFF is reached ----------------------------------------


    CHARGE:  cpu time    2.3556: real time    2.3544
    FORLOC:  cpu time    0.0160: real time    0.0162
    FORNL :  cpu time   12.1751: real time   12.1732
    STRESS:  cpu time   36.2485: real time   36.7376
    FORCOR:  cpu time    0.0740: real time    0.0738
    FORHAR:  cpu time    0.0310: real time    0.0313
    MIXING:  cpu time    0.0100: real time    0.0097
    OFIELD:  cpu time    0.0000: real time    0.0000

  FORCE on cell =-STRESS in cart. coord.  units (eV):
  Direction    XX          YY          ZZ          XY          YZ          ZX
  --------------------------------------------------------------------------------------
  Alpha Z   939.05131   939.05131   939.05131
  Ewald  112362.09165112385.30575************   -26.01298    -3.35261   -11.95009
  Hartree118772.56985118785.52217************   -12.97863    -1.61589    -4.36516
  E(xc)   -1612.52311 -1612.48835 -1622.21324    -0.05876    -0.00155    -0.03130
  Local  ************************242476.82549    35.69939     4.86878    14.82898
  n-local   147.71710   149.91895   134.75407    -2.21244    -0.31682    -1.01567
  augment  1881.53609  1879.00905  1927.81872     2.54858     0.14470     0.81302
  Kinetic  5269.26007  5265.50836  5398.57891     4.01749     0.28772     1.48492
  Fock        0.00000     0.00000     0.00000     0.00000     0.00000     0.00000
  -------------------------------------------------------------------------------------
  Total     -35.34735   -36.62632    -0.21309     1.00265     0.01433    -0.23531
  in kB     -42.14738   -43.67240    -0.25409     1.19554     0.01709    -0.28058
  external pressure =      -28.69 kB  Pullay stress =        0.00 kB


 VOLUME and BASIS-vectors are now :
 -----------------------------------------------------------------------------
  energy-cutoff  :      400.00
  volume of cell :     1343.68
      direct lattice vectors                 reciprocal lattice vectors
     8.421641764  0.000000000  0.000000000     0.118741693 -0.068555548  0.000000000
     4.210820882  7.293355709  0.000000000     0.000000000  0.137111097  0.000000000
     0.000000000  0.000000000 21.876241706     0.000000000  0.000000000  0.045711691

  length of vectors
     8.421641764  8.421641764 21.876241706     0.137111097  0.137111097  0.045711691


 FORCES acting on ions
    electron-ion (+dipol)            ewald-force                    non-local-force                 convergence-correction
 -----------------------------------------------------------------------------------------------
   0.460E+00 0.421E+00 0.232E+04   -.516E+00 -.340E+00 -.232E+04   0.340E-01 -.419E-01 -.116E+01   0.845E-04 -.197E-03 -.277E-03
   -.346E+00 -.192E+00 0.232E+04   0.333E+00 0.188E+00 -.232E+04   0.316E-02 -.141E-03 -.122E+01   -.152E-03 -.629E-05 -.209E-03
   -.174E+00 -.244E-01 0.232E+04   0.180E+00 0.164E-01 -.232E+04   0.553E-02 0.764E-02 -.123E+01   0.675E-04 0.879E-05 -.308E-03
   -.357E+00 -.173E+00 0.232E+04   0.351E+00 0.168E+00 -.232E+04   -.624E-02 -.331E-02 -.122E+01   0.100E-03 0.457E-04 -.240E-03
   -.117E+00 -.130E+00 0.232E+04   0.110E+00 0.143E+00 -.232E+04   0.111E-01 -.117E-02 -.123E+01   -.306E-04 0.258E-03 -.152E-03
   0.454E+00 0.267E+00 0.232E+04   -.458E+00 -.264E+00 -.232E+04   0.909E-02 0.356E-02 -.120E+01   -.700E-04 0.122E-03 -.246E-03
   -.196E+00 -.117E+00 0.232E+04   0.226E+00 0.138E+00 -.232E+04   -.195E-01 -.131E-01 -.125E+01   0.252E-03 -.100E-03 -.233E-03
   0.589E+00 0.192E+00 0.232E+04   -.547E+00 -.275E+00 -.232E+04   -.190E-01 0.468E-01 -.116E+01   -.199E-03 -.312E-04 -.154E-03
   -.333E+00 -.222E+00 0.232E+04   0.323E+00 0.224E+00 -.232E+04   -.465E-02 -.679E-02 -.122E+01   -.524E-04 -.996E-04 -.272E-03
   -.225E+01 -.144E+01 0.809E+03   0.212E+01 0.138E+01 -.809E+03   0.141E+00 0.575E-01 -.364E+00   0.133E-03 -.853E-04 0.109E-03
   -.160E+01 -.856E+00 0.806E+03   0.162E+01 0.871E+00 -.805E+03   -.499E-02 -.129E-01 -.292E+00   -.142E-03 0.205E-03 0.221E-03
   0.300E+01 0.251E+01 0.805E+03   -.296E+01 -.260E+01 -.805E+03   -.682E-01 0.182E-01 -.245E+00   0.887E-05 0.343E-04 0.402E-04
   -.316E+01 -.178E+01 0.806E+03   0.321E+01 0.179E+01 -.806E+03   0.135E-01 0.558E-02 -.327E+00   0.239E-03 0.304E-04 0.108E-03
   0.354E+01 0.147E+01 0.805E+03   -.361E+01 -.138E+01 -.805E+03   -.610E-02 -.851E-01 -.246E+00   -.212E-03 0.206E-03 0.114E-03
   -.507E+00 -.233E+00 0.810E+03   0.481E+00 0.226E+00 -.809E+03   0.378E-01 0.795E-02 -.405E+00   -.271E-04 0.611E-04 0.714E-04
   0.606E+01 0.351E+01 0.803E+03   -.593E+01 -.343E+01 -.803E+03   -.159E+00 -.983E-01 -.233E+00   0.171E-03 -.259E-03 0.472E-04
   -.245E+01 -.108E+01 0.809E+03   0.233E+01 0.100E+01 -.809E+03   0.130E+00 0.745E-01 -.363E+00   -.254E-03 -.619E-04 0.197E-03
   -.316E+01 -.175E+01 0.806E+03   0.320E+01 0.179E+01 -.806E+03   0.206E-01 -.912E-02 -.325E+00   0.826E-04 -.133E-03 0.122E-03
   -.904E+00 0.168E+01 -.709E+03   0.861E+00 -.176E+01 0.709E+03   0.459E-01 0.877E-01 0.463E+00   0.153E-03 -.106E-04 0.341E-03
   -.228E+01 -.271E+01 -.726E+03   0.250E+01 0.290E+01 0.726E+03   -.220E+00 -.193E+00 0.324E+00   0.161E-03 -.140E-04 0.425E-03
   0.212E+01 0.106E+01 -.731E+03   -.216E+01 -.109E+01 0.731E+03   0.465E-01 0.339E-01 0.686E+00   -.315E-03 0.160E-03 0.341E-03
   -.220E+01 -.162E+01 -.718E+03   0.229E+01 0.167E+01 0.717E+03   -.844E-01 -.487E-01 0.485E+00   0.165E-03 0.104E-04 0.428E-03
   0.142E+01 -.241E+01 -.738E+03   -.148E+01 0.185E+01 0.738E+03   0.629E-01 0.561E+00 -.144E+00   0.359E-04 -.174E-04 0.307E-03
   0.938E+00 -.152E+01 -.709E+03   -.103E+01 0.153E+01 0.709E+03   0.982E-01 -.543E-02 0.466E+00   -.204E-03 0.209E-03 0.309E-03
   -.119E+01 0.258E+01 -.739E+03   0.676E+00 -.236E+01 0.739E+03   0.515E+00 -.225E+00 -.152E+00   0.933E-04 -.240E-03 0.424E-03
   0.393E+01 0.237E+01 -.700E+03   -.403E+01 -.243E+01 0.699E+03   0.118E+00 0.572E-01 0.673E+00   0.128E-03 -.160E-03 0.397E-03
   -.372E+01 -.217E+00 -.726E+03   0.399E+01 0.315E+00 0.726E+03   -.271E+00 -.102E+00 0.329E+00   -.232E-03 0.587E-04 0.513E-03
   -.111E+02 0.421E+01 -.224E+04   0.112E+02 -.425E+01 0.224E+04   -.624E-01 0.489E-01 0.106E+01   0.195E-03 -.212E-03 0.744E-04
   0.279E+02 0.158E+02 -.219E+04   -.291E+02 -.165E+02 0.219E+04   0.128E+01 0.751E+00 0.177E+01   0.478E-04 -.229E-04 0.111E-04
   -.492E+02 0.865E+02 -.219E+04   0.485E+02 -.854E+02 0.220E+04   0.694E+00 -.112E+01 -.339E+01   -.218E-03 -.907E-04 0.394E-04
   0.915E+01 -.444E+01 -.224E+04   -.921E+01 0.450E+01 0.224E+04   0.601E-01 -.695E-01 0.109E+01   0.286E-03 -.509E-05 0.458E-04
   0.505E+02 -.857E+02 -.219E+04   -.499E+02 0.845E+02 0.220E+04   -.652E+00 0.116E+01 -.339E+01   -.160E-03 0.294E-04 -.685E-04
   -.303E+02 -.176E+02 -.220E+04   0.312E+02 0.182E+02 0.220E+04   -.963E+00 -.534E+00 0.160E+01   -.117E-03 0.127E-03 0.825E-04
   0.159E+01 0.583E+00 -.225E+04   -.153E+01 -.572E+00 0.224E+04   -.498E-01 -.114E-01 0.113E+01   0.813E-04 -.107E-03 -.208E-06
   -.151E+01 -.120E+02 -.224E+04   0.154E+01 0.120E+02 0.224E+04   -.185E-01 -.627E-01 0.106E+01   -.507E-04 0.101E-03 -.634E-04
   0.563E+00 0.103E+02 -.224E+04   -.535E+00 -.104E+02 0.224E+04   -.329E-01 0.975E-01 0.108E+01   -.306E-04 0.195E-03 0.251E-04
   0.296E+01 0.158E+01 -.107E+04   -.298E+01 -.160E+01 0.108E+04   0.245E-01 0.168E-01 -.220E+01   -.752E-04 0.539E-05 -.375E-04
   -.345E+02 -.198E+02 -.278E+03   0.385E+02 0.221E+02 0.281E+03   -.399E+01 -.229E+01 -.322E+01   -.122E-04 -.349E-06 -.817E-06
   0.356E+02 0.205E+02 -.277E+03   -.397E+02 -.228E+02 0.280E+03   0.410E+01 0.236E+01 -.305E+01   -.846E-05 -.135E-05 -.153E-04
 -----------------------------------------------------------------------------------------------
   -.718E+00 -.452E+00 0.169E+02   0.711E-13 -.178E-13 -.131E-11   0.813E+00 0.460E+00 -.170E+02   -.790E-04 0.151E-04 0.252E-02
 
 
 POSITION                                       TOTAL-FORCE (eV/Angst)
 -----------------------------------------------------------------------------------
      0.00000      0.00000      7.50000        -0.024393      0.039045     -0.083492
      2.80721      0.00000      7.50000        -0.012265     -0.004163     -0.054486
      5.61443      0.00000      7.50000         0.008951     -0.000605     -0.047734
      1.40361      2.43112      7.50000        -0.015032     -0.008142     -0.056957
      4.21082      2.43112      7.50000         0.001418      0.012194     -0.047369
      7.01803      2.43112      7.50000         0.003006      0.005738     -0.073877
      2.80721      4.86224      7.50000         0.008567      0.007849     -0.038065
      5.61443      4.86224      7.50000         0.020265     -0.036336     -0.083676
      8.42164      4.86224      7.50000        -0.017425     -0.004331     -0.057458
      1.40361      0.81037      9.79208         0.008671      0.001063     -0.047448
      4.21082      0.81037      9.79208         0.009078      0.002478      0.187619
      7.01803      0.81037      9.79208        -0.026692     -0.073200      0.120178
      2.80721      3.24149      9.79208         0.065158      0.020569      0.177650
      5.61443      3.24149      9.79208        -0.072144      0.006747      0.121113
      8.42164      3.24149      9.79208         0.009429      0.001028      0.018810
      4.21082      5.67261      9.79208        -0.026631     -0.018328     -0.091831
      7.01803      5.67261      9.79208         0.008252      0.000970     -0.047494
      9.82525      5.67261      9.79208         0.054465      0.039276      0.182356
      8.43295      1.61446     12.05021         0.000617      0.002146     -0.010889
      2.82533      1.62720     12.07556        -0.002563     -0.002896     -0.009845
      5.61425      1.61500     12.08677         0.002660      0.003711     -0.006248
      9.83467      4.05195     12.05932        -0.005588     -0.000364     -0.003589
      4.21068      4.02598     12.09766         0.000722      0.002269     -0.009845
      7.02327      4.05740     12.05016         0.002059      0.002283     -0.009326
     11.21035      6.48762     12.09843         0.000066     -0.005317     -0.014100
      5.60461      6.47283     12.03373         0.010477      0.000094     -0.009828
      8.43957      6.48889     12.07530         0.000452     -0.004066     -0.009435
      4.22629      7.28895     14.35678         0.004984      0.006603      0.006489
      6.97802      7.25885     14.31087         0.005264      0.007381      0.002386
      5.63866      0.01655     14.53028        -0.004109      0.001083      0.000611
      1.43339      2.43772     14.35920        -0.002789     -0.009223      0.002870
      4.25005      2.42654     14.52997        -0.002360     -0.003292     -0.001654
      7.09534      2.46166     14.32428        -0.004538     -0.000343      0.004832
      2.83117      4.86247     14.37460        -0.000935     -0.000725     -0.001473
      5.63201      4.85811     14.35636         0.004302     -0.000830      0.009602
      8.45241      4.86741     14.36053        -0.007960      0.003732     -0.005923
      4.88674      1.18832     16.02764         0.007700      0.002899     -0.002297
      5.67010      1.63724     16.65700        -0.009096      0.001336     -0.007402
      4.08323      0.72622     16.61998        -0.002042      0.001672     -0.002773
 -----------------------------------------------------------------------------------
    total drift:                                0.094322      0.008192     -0.087327


--------------------------------------------------------------------------------------------------------



  FREE ENERGIE OF THE ION-ELECTRON SYSTEM (eV)
  ---------------------------------------------------
  free  energy   TOTEN  =      -225.57011559 eV

  energy  without entropy=     -223.45530576  energy(sigma->0) =     -224.51271068
 


--------------------------------------------------------------------------------------------------------


    POTLOK:  cpu time    0.1400: real time    0.1403


--------------------------------------------------------------------------------------------------------


 stress matrix after NEB project (eV)
    -35.34735      1.00265     -0.23531
      1.00265    -36.62632      0.01433
     -0.23531      0.01433     -0.21309
  FORCES: max atom, RMS     0.015069    0.007004
  FORCE total and by dimension    0.043740    0.014100
  Stress total and by dimension   50.922393   36.626324
     LOOP+:  cpu time 2742.0251: real time 2770.1242
    4ORBIT:  cpu time    0.0000: real time    0.0000

 total amount of memory used by VASP on root node   286479. kBytes
========================================================================

   base      :      30000. kBytes
   nonlr-proj:       4668. kBytes
   fftplans  :       4497. kBytes
   grid      :       7849. kBytes
   one-center:        155. kBytes
   wavefun   :     239310. kBytes
 
  
  
 General timing and accounting informations for this job:
 ========================================================
  
                  Total CPU time used (sec):     2768.136
                            User time (sec):     2251.259
                          System time (sec):      516.877
                         Elapsed time (sec):     2796.737
  
                   Maximum memory used (kb):      347428.
                   Average memory used (kb):           0.
  
                          Minor page faults:     12638708
                          Major page faults:           13
                 Voluntary context switches:        16387
