<?xml version="1.0" encoding="ISO-8859-1"?>
<modeling>
 <generator>
  <i name="program" type="string">vasp </i>
  <i name="version" type="string">5.4.1  </i>
  <i name="subversion" type="string">24Jun15 (build Oct 10 2016 12:42:00) complex                          parallel </i>
  <i name="platform" type="string">IFC91_ompi </i>
  <i name="date" type="string">2018 06 30 </i>
  <i name="time" type="string">21:05:19 </i>
 </generator>
 <incar>
  <i type="string" name="PREC">normal</i>
  <i type="string" name="ALGO"> fast</i>
  <i type="int" name="ISPIN">     1</i>
  <i type="int" name="NELMDL">    -4</i>
  <i type="int" name="NELMIN">     4</i>
  <i name="EDIFF">      0.00000100</i>
  <i name="ENCUT">    400.00000000</i>
  <i type="string" name="LREAL"> auto</i>
  <i type="int" name="ISMEAR">    -1</i>
  <i name="SIGMA">      0.10000000</i>
  <i type="logical" name="LWAVE"> F  </i>
  <i type="logical" name="LCHARG"> F  </i>
  <v type="int" name="KPOINT_BSE">    -1     0     0     0</v>
  <i type="string" name="GGA"> PE</i>
 </incar>
 <kpoints>
  <generation param="Monkhorst-Pack">
   <v type="int" name="divisions">       6        6        1 </v>
   <v name="usershift">      0.00000000       0.00000000       0.00000000 </v>
   <v name="genvec1">      0.16666667      -0.00000000       0.00000000 </v>
   <v name="genvec2">      0.00000000       0.16666667       0.00000000 </v>
   <v name="genvec3">      0.00000000       0.00000000       1.00000000 </v>
   <v name="shift">      0.50000000       0.50000000       0.00000000 </v>
  </generation>
  <varray name="kpointlist" >
   <v>       0.08333333       0.08333333       0.00000000 </v>
   <v>       0.00000000       0.08333333       0.00000000 </v>
   <v>      -0.08333333       0.00000000       0.00000000 </v>
   <v>       0.25000000       0.08333333       0.00000000 </v>
   <v>       0.16666667       0.25000000       0.00000000 </v>
   <v>      -0.08333333       0.16666667       0.00000000 </v>
   <v>       0.16666667      -0.08333333       0.00000000 </v>
   <v>      -0.08333333      -0.25000000       0.00000000 </v>
   <v>      -0.25000000      -0.16666667       0.00000000 </v>
   <v>       0.41666667       0.08333333       0.00000000 </v>
   <v>       0.33333333       0.41666667       0.00000000 </v>
   <v>      -0.08333333       0.33333333       0.00000000 </v>
   <v>       0.33333333      -0.08333333       0.00000000 </v>
   <v>      -0.08333333      -0.41666667       0.00000000 </v>
   <v>      -0.41666667      -0.33333333       0.00000000 </v>
   <v>      -0.41666667       0.08333333       0.00000000 </v>
   <v>       0.50000000      -0.41666667       0.00000000 </v>
   <v>      -0.08333333       0.50000000       0.00000000 </v>
   <v>       0.50000000      -0.08333333       0.00000000 </v>
   <v>      -0.08333333       0.41666667       0.00000000 </v>
   <v>       0.41666667       0.50000000       0.00000000 </v>
   <v>      -0.25000000       0.08333333       0.00000000 </v>
   <v>      -0.33333333      -0.25000000       0.00000000 </v>
   <v>      -0.08333333      -0.33333333       0.00000000 </v>
   <v>      -0.33333333      -0.08333333       0.00000000 </v>
   <v>      -0.08333333       0.25000000       0.00000000 </v>
   <v>       0.25000000       0.33333333       0.00000000 </v>
   <v>      -0.08333333       0.08333333       0.00000000 </v>
   <v>      -0.16666667      -0.08333333       0.00000000 </v>
   <v>      -0.08333333      -0.16666667       0.00000000 </v>
   <v>       0.25000000       0.25000000       0.00000000 </v>
   <v>       0.00000000       0.25000000       0.00000000 </v>
   <v>      -0.25000000       0.00000000       0.00000000 </v>
   <v>       0.41666667       0.25000000       0.00000000 </v>
   <v>       0.16666667       0.41666667       0.00000000 </v>
   <v>      -0.25000000       0.16666667       0.00000000 </v>
   <v>       0.16666667      -0.25000000       0.00000000 </v>
   <v>      -0.25000000      -0.41666667       0.00000000 </v>
   <v>      -0.41666667      -0.16666667       0.00000000 </v>
   <v>      -0.41666667       0.25000000       0.00000000 </v>
   <v>       0.33333333      -0.41666667       0.00000000 </v>
   <v>      -0.25000000       0.33333333       0.00000000 </v>
   <v>       0.33333333      -0.25000000       0.00000000 </v>
   <v>      -0.25000000       0.41666667       0.00000000 </v>
   <v>       0.41666667      -0.33333333       0.00000000 </v>
   <v>      -0.25000000       0.25000000       0.00000000 </v>
   <v>       0.50000000      -0.25000000       0.00000000 </v>
   <v>      -0.25000000       0.50000000       0.00000000 </v>
   <v>       0.41666667       0.41666667       0.00000000 </v>
   <v>       0.00000000       0.41666667       0.00000000 </v>
   <v>      -0.41666667      -0.00000000       0.00000000 </v>
   <v>      -0.41666667       0.41666667       0.00000000 </v>
   <v>       0.16666667      -0.41666667       0.00000000 </v>
   <v>      -0.41666667       0.16666667       0.00000000 </v>
  </varray>
  <varray name="weights" >
   <v>       0.01851852 </v>
   <v>       0.01851852 </v>
   <v>       0.01851852 </v>
   <v>       0.01851852 </v>
   <v>       0.01851852 </v>
   <v>       0.01851852 </v>
   <v>       0.01851852 </v>
   <v>       0.01851852 </v>
   <v>       0.01851852 </v>
   <v>       0.01851852 </v>
   <v>       0.01851852 </v>
   <v>       0.01851852 </v>
   <v>       0.01851852 </v>
   <v>       0.01851852 </v>
   <v>       0.01851852 </v>
   <v>       0.01851852 </v>
   <v>       0.01851852 </v>
   <v>       0.01851852 </v>
   <v>       0.01851852 </v>
   <v>       0.01851852 </v>
   <v>       0.01851852 </v>
   <v>       0.01851852 </v>
   <v>       0.01851852 </v>
   <v>       0.01851852 </v>
   <v>       0.01851852 </v>
   <v>       0.01851852 </v>
   <v>       0.01851852 </v>
   <v>       0.01851852 </v>
   <v>       0.01851852 </v>
   <v>       0.01851852 </v>
   <v>       0.01851852 </v>
   <v>       0.01851852 </v>
   <v>       0.01851852 </v>
   <v>       0.01851852 </v>
   <v>       0.01851852 </v>
   <v>       0.01851852 </v>
   <v>       0.01851852 </v>
   <v>       0.01851852 </v>
   <v>       0.01851852 </v>
   <v>       0.01851852 </v>
   <v>       0.01851852 </v>
   <v>       0.01851852 </v>
   <v>       0.01851852 </v>
   <v>       0.01851852 </v>
   <v>       0.01851852 </v>
   <v>       0.01851852 </v>
   <v>       0.01851852 </v>
   <v>       0.01851852 </v>
   <v>       0.01851852 </v>
   <v>       0.01851852 </v>
   <v>       0.01851852 </v>
   <v>       0.01851852 </v>
   <v>       0.01851852 </v>
   <v>       0.01851852 </v>
  </varray>
 </kpoints>
 <parameters>
  <separator name="general" >
   <i type="string" name="SYSTEM">unknown system</i>
   <i type="logical" name="LCOMPAT"> F  </i>
  </separator>
  <separator name="electronic" >
   <i type="string" name="PREC">normal</i>
   <i name="ENMAX">    400.00000000</i>
   <i name="ENAUG">    644.87300000</i>
   <i name="EDIFF">      0.00000100</i>
   <i type="int" name="IALGO">    68</i>
   <i type="int" name="IWAVPR">    10</i>
   <i type="int" name="NBANDS">   225</i>
   <i name="NELECT">    372.00000000</i>
   <i type="int" name="TURBO">     0</i>
   <i type="int" name="IRESTART">     0</i>
   <i type="int" name="NREBOOT">     0</i>
   <i type="int" name="NMIN">     0</i>
   <i name="EREF">      0.00000000</i>
   <separator name="electronic smearing" >
    <i type="int" name="ISMEAR">    -1</i>
    <i name="SIGMA">      0.10000000</i>
    <i name="KSPACING">      0.50000000</i>
    <i type="logical" name="KGAMMA"> T  </i>
   </separator>
   <separator name="electronic projectors" >
    <i type="logical" name="LREAL"> T  </i>
    <v name="ROPT">     -0.00050000     -0.00050000     -0.00050000</v>
    <i type="int" name="LMAXPAW">  -100</i>
    <i type="int" name="LMAXMIX">     2</i>
    <i type="logical" name="NLSPLINE"> F  </i>
   </separator>
   <separator name="electronic startup" >
    <i type="int" name="ISTART">     0</i>
    <i type="int" name="ICHARG">     2</i>
    <i type="int" name="INIWAV">     1</i>
   </separator>
   <separator name="electronic spin" >
    <i type="int" name="ISPIN">     1</i>
    <i type="logical" name="LNONCOLLINEAR"> F  </i>
    <v name="MAGMOM">      1.00000000      1.00000000      1.00000000      1.00000000      1.00000000      1.00000000      1.00000000      1.00000000      1.00000000      1.00000000      1.00000000      1.00000000      1.00000000      1.00000000      1.00000000      1.00000000      1.00000000      1.00000000      1.00000000      1.00000000
      1.00000000      1.00000000      1.00000000      1.00000000      1.00000000      1.00000000      1.00000000      1.00000000      1.00000000      1.00000000      1.00000000      1.00000000      1.00000000      1.00000000      1.00000000      1.00000000      1.00000000      1.00000000      1.00000000      1.00000000
      1.00000000      1.00000000</v>
    <i name="NUPDOWN">     -1.00000000</i>
    <i type="logical" name="LSORBIT"> F  </i>
    <v name="SAXIS">      0.00000000      0.00000000      1.00000000</v>
    <i type="logical" name="LSPIRAL"> F  </i>
    <v name="QSPIRAL">      0.00000000      0.00000000      0.00000000</v>
    <i type="logical" name="LZEROZ"> F  </i>
   </separator>
   <separator name="electronic exchange-correlation" >
    <i type="logical" name="LASPH"> F  </i>
    <i type="logical" name="LMETAGGA"> F  </i>
   </separator>
   <separator name="electronic convergence" >
    <i type="int" name="NELM">    60</i>
    <i type="int" name="NELMDL">    -4</i>
    <i type="int" name="NELMIN">     4</i>
    <i name="ENINI">    400.00000000</i>
    <separator name="electronic convergence detail" >
     <i type="logical" name="LDIAG"> T  </i>
     <i type="logical" name="LSUBROT"> F  </i>
     <i name="WEIMIN">      0.00000000</i>
     <i name="EBREAK">      0.00000000</i>
     <i name="DEPER">      0.30000000</i>
     <i type="int" name="NRMM">     4</i>
     <i name="TIME">      0.40000000</i>
    </separator>
   </separator>
   <separator name="electronic mixer" >
    <i name="AMIX">      0.40000000</i>
    <i name="BMIX">      1.00000000</i>
    <i name="AMIN">      0.10000000</i>
    <i name="AMIX_MAG">      1.60000000</i>
    <i name="BMIX_MAG">      1.00000000</i>
    <separator name="electronic mixer details" >
     <i type="int" name="IMIX">     4</i>
     <i type="logical" name="MIXFIRST"> F  </i>
     <i type="int" name="MAXMIX">   -45</i>
     <i name="WC">    100.00000000</i>
     <i type="int" name="INIMIX">     1</i>
     <i type="int" name="MIXPRE">     1</i>
     <i type="int" name="MREMOVE">     5</i>
    </separator>
   </separator>
   <separator name="electronic dipolcorrection" >
    <i type="logical" name="LDIPOL"> F  </i>
    <i type="logical" name="LMONO"> F  </i>
    <i type="int" name="IDIPOL">     0</i>
    <i name="EPSILON">      1.00000000</i>
    <v name="DIPOL">   -100.00000000   -100.00000000   -100.00000000</v>
    <i name="EFIELD">      0.00000000</i>
   </separator>
  </separator>
  <separator name="grids" >
   <i type="int" name="NGX">    42</i>
   <i type="int" name="NGY">    42</i>
   <i type="int" name="NGZ">   108</i>
   <i type="int" name="NGXF">    84</i>
   <i type="int" name="NGYF">    84</i>
   <i type="int" name="NGZF">   216</i>
   <i type="logical" name="ADDGRID"> F  </i>
  </separator>
  <separator name="ionic" >
   <i type="int" name="NSW">     0</i>
   <i type="int" name="IBRION">    -1</i>
   <i type="int" name="ISIF">     2</i>
   <i name="PSTRESS">      0.00000000</i>
   <i name="EDIFFG">      0.00001000</i>
   <i type="int" name="NFREE">     0</i>
   <i name="POTIM">      0.50000000</i>
   <i name="SMASS">     -3.00000000</i>
   <i name="SCALEE">      1.00000000</i>
  </separator>
  <separator name="ionic md" >
   <i name="TEBEG">      0.00010000</i>
   <i name="TEEND">      0.00010000</i>
   <i type="int" name="NBLOCK">     1</i>
   <i type="int" name="KBLOCK">     1</i>
   <i type="int" name="NPACO">   256</i>
   <i name="APACO">     16.00000000</i>
  </separator>
  <separator name="symmetry" >
   <i type="int" name="ISYM">     2</i>
   <i name="SYMPREC">      0.00001000</i>
  </separator>
  <separator name="dos" >
   <i type="logical" name="LORBIT"> F  </i>
   <v name="RWIGS">     -1.00000000     -1.00000000     -1.00000000</v>
   <i type="int" name="NEDOS">   301</i>
   <i name="EMIN">     10.00000000</i>
   <i name="EMAX">    -10.00000000</i>
   <i name="EFERMI">      0.00000000</i>
  </separator>
  <separator name="writing" >
   <i type="int" name="NWRITE">     2</i>
   <i type="logical" name="LWAVE"> F  </i>
   <i type="logical" name="LCHARG"> F  </i>
   <i type="logical" name="LPARD"> F  </i>
   <i type="logical" name="LVTOT"> F  </i>
   <i type="logical" name="LVHAR"> F  </i>
   <i type="logical" name="LELF"> F  </i>
   <i type="logical" name="LOPTICS"> F  </i>
   <v name="STM">      0.00000000      0.00000000      0.00000000      0.00000000      0.00000000      0.00000000      0.00000000</v>
  </separator>
  <separator name="performance" >
   <i type="int" name="NPAR">     5</i>
   <i type="int" name="NSIM">     4</i>
   <i type="int" name="NBLK">    -1</i>
   <i type="logical" name="LPLANE"> T  </i>
   <i type="logical" name="LSCALAPACK"> T  </i>
   <i type="logical" name="LSCAAWARE"> F  </i>
   <i type="logical" name="LSCALU"> F  </i>
   <i type="logical" name="LASYNC"> F  </i>
   <i type="logical" name="LORBITALREAL"> F  </i>
  </separator>
  <separator name="miscellaneous" >
   <i type="int" name="IDIOT">     3</i>
   <i type="logical" name="LMUSIC"> F  </i>
   <v name="POMASS">    195.08000000     12.01100000      1.00000000</v>
   <v name="DARWINR">      0.00000000      0.00000000      0.00000000</v>
   <v name="DARWINV">      1.00000000      1.00000000      1.00000000</v>
   <i type="logical" name="LCORR"> T  </i>
  </separator>
  <i type="logical" name="GGA_COMPAT"> T  </i>
  <i type="logical" name="LBERRY"> F  </i>
  <i type="int" name="ICORELEVEL">     0</i>
  <i type="logical" name="LDAU"> F  </i>
  <i type="int" name="I_CONSTRAINED_M">     0</i>
  <separator name="electronic exchange-correlation" >
   <i type="string" name="GGA">PE</i>
   <i type="int" name="VOSKOWN">     0</i>
   <i type="logical" name="LHFCALC"> F  </i>
   <i type="string" name="PRECFOCK"></i>
   <i type="logical" name="LSYMGRAD"> F  </i>
   <i type="logical" name="LHFONE"> F  </i>
   <i type="logical" name="LRHFCALC"> F  </i>
   <i type="logical" name="LTHOMAS"> F  </i>
   <i type="logical" name="LMODELHF"> F  </i>
   <i name="ENCUT4O">     -1.00000000</i>
   <i type="int" name="EXXOEP">     0</i>
   <i type="int" name="FOURORBIT">     0</i>
   <i name="AEXX">      0.00000000</i>
   <i name="HFALPHA">      0.00000000</i>
   <i name="MCALPHA">      0.00000000</i>
   <i name="ALDAX">      1.00000000</i>
   <i name="AGGAX">      1.00000000</i>
   <i name="ALDAC">      1.00000000</i>
   <i name="AGGAC">      1.00000000</i>
   <i type="int" name="NKREDX">     1</i>
   <i type="int" name="NKREDY">     1</i>
   <i type="int" name="NKREDZ">     1</i>
   <i type="logical" name="SHIFTRED"> F  </i>
   <i type="logical" name="ODDONLY"> F  </i>
   <i type="logical" name="EVENONLY"> F  </i>
   <i type="int" name="LMAXFOCK">     0</i>
   <i type="int" name="NMAXFOCKAE">     0</i>
   <i type="logical" name="LFOCKAEDFT"> F  </i>
   <i name="HFSCREEN">      0.00000000</i>
   <i name="HFSCREENC">      0.00000000</i>
   <i type="int" name="NBANDSGWLOW">     0</i>
  </separator>
  <separator name="vdW DFT" >
   <i type="logical" name="LUSE_VDW"> F  </i>
   <i name="Zab_VDW">     -0.84910000</i>
   <i name="PARAM1">      0.12340000</i>
   <i name="PARAM2">      1.00000000</i>
   <i name="PARAM3">      0.00000000</i>
  </separator>
  <separator name="model GW" >
   <i type="int" name="MODEL_GW">     0</i>
   <i name="MODEL_EPS0">     19.19547362</i>
   <i name="MODEL_ALPHA">      1.00000000</i>
  </separator>
  <separator name="linear response parameters" >
   <i type="logical" name="LEPSILON"> F  </i>
   <i type="logical" name="LRPA"> F  </i>
   <i type="logical" name="LNABLA"> F  </i>
   <i type="logical" name="LVEL"> F  </i>
   <i type="int" name="KINTER">     0</i>
   <i name="CSHIFT">      0.10000000</i>
   <i name="OMEGAMAX">     -1.00000000</i>
   <i name="DEG_THRESHOLD">      0.00200000</i>
  </separator>
  <separator name="orbital magnetization" >
   <i type="logical" name="NUCIND"> F  </i>
   <v name="MAGPOS">      0.00000000      0.00000000      0.00000000</v>
   <i type="logical" name="LNICSALL"> T  </i>
   <i type="logical" name="ORBITALMAG"> F  </i>
   <i type="logical" name="LMAGBLOCH"> F  </i>
   <i type="logical" name="LCHIMAG"> F  </i>
   <i type="logical" name="LGAUGE"> T  </i>
   <i type="int" name="MAGATOM">     0</i>
   <v name="MAGDIPOL">      0.00000000      0.00000000      0.00000000</v>
   <v name="AVECCONST">      0.00000000      0.00000000      0.00000000</v>
  </separator>
  <separator name="response functions" >
   <i type="logical" name="LADDER"> F  </i>
   <i type="logical" name="LFXC"> F  </i>
   <i type="logical" name="LHARTREE"> T  </i>
   <i type="int" name="IBSE">     0</i>
   <v type="int" name="KPOINT">    -1     0     0     0</v>
   <i type="logical" name="LTCTE"> F  </i>
   <i type="logical" name="LTETE"> F  </i>
   <i type="logical" name="LTRIPLET"> F  </i>
   <i type="logical" name="LFXCEPS"> F  </i>
   <i type="logical" name="LFXHEG"> F  </i>
   <i type="int" name="NATURALO">     0</i>
   <i type="logical" name="L2ORDER"> F  </i>
   <i type="logical" name="LUSEW"> F  </i>
   <i name="ENCUTGW">     -2.00000000</i>
   <i name="ENCUTGWSOFT">     -2.00000000</i>
   <i name="ENCUTLF">     -1.00000000</i>
   <i type="int" name="LMAXMP2">    -1</i>
   <i name="SCISSOR">      0.00000000</i>
   <i type="int" name="NOMEGA">     0</i>
   <i type="int" name="NOMEGAR">     0</i>
   <i type="int" name="NBANDSGW">    -1</i>
   <i type="int" name="NBANDSO">    -1</i>
   <i type="int" name="NBANDSV">    -1</i>
   <i type="int" name="NELM">     1</i>
   <i type="int" name="NELMHF">     1</i>
   <i type="int" name="DIM">     3</i>
   <i type="int" name="ANTIRES">     0</i>
   <i name="OMEGAMAX">    -30.00000000</i>
   <i name="OMEGAMIN">    -30.00000000</i>
   <i name="OMEGATL">   -200.00000000</i>
   <i type="int" name="OMEGAGRID">     0</i>
   <i name="CSHIFT">     -0.10000000</i>
   <i type="logical" name="SELFENERGY"> F  </i>
   <i type="logical" name="LSPECTRAL"> F  </i>
   <i type="logical" name="LSPECTRALGW"> F  </i>
   <i type="logical" name="LSINGLES"> F  </i>
   <i type="logical" name="LFERMIGW"> F  </i>
   <i type="logical" name="ODDONLYGW"> F  </i>
   <i type="logical" name="EVENONLYGW"> F  </i>
   <i type="int" name="NKREDLFX">     1</i>
   <i type="int" name="NKREDLFY">     1</i>
   <i type="int" name="NKREDLFZ">     1</i>
   <i type="int" name="MAXMEM">  1800</i>
   <i type="int" name="TELESCOPE">     0</i>
   <i type="int" name="TAUPAR">     1</i>
   <i type="int" name="OMEGAPAR">    -1</i>
   <i name="LAMBDA">      1.00000000</i>
  </separator>
  <separator name="External order field" >
   <i name="OFIELD_KAPPA">      0.00000000</i>
   <v name="OFIELD_K">      0.00000000      0.00000000      0.00000000</v>
   <i name="OFIELD_Q6_NEAR">      0.00000000</i>
   <i name="OFIELD_Q6_FAR">      0.00000000</i>
   <i name="OFIELD_A">      0.00000000</i>
  </separator>
 </parameters>
 <atominfo>
  <atoms>      42 </atoms>
  <types>       3 </types>
  <array name="atoms" >
   <dimension dim="1">ion</dimension>
   <field type="string">element</field>
   <field type="int">atomtype</field>
   <set>
    <rc><c>Pt</c><c>   1</c></rc>
    <rc><c>Pt</c><c>   1</c></rc>
    <rc><c>Pt</c><c>   1</c></rc>
    <rc><c>Pt</c><c>   1</c></rc>
    <rc><c>Pt</c><c>   1</c></rc>
    <rc><c>Pt</c><c>   1</c></rc>
    <rc><c>Pt</c><c>   1</c></rc>
    <rc><c>Pt</c><c>   1</c></rc>
    <rc><c>Pt</c><c>   1</c></rc>
    <rc><c>Pt</c><c>   1</c></rc>
    <rc><c>Pt</c><c>   1</c></rc>
    <rc><c>Pt</c><c>   1</c></rc>
    <rc><c>Pt</c><c>   1</c></rc>
    <rc><c>Pt</c><c>   1</c></rc>
    <rc><c>Pt</c><c>   1</c></rc>
    <rc><c>Pt</c><c>   1</c></rc>
    <rc><c>Pt</c><c>   1</c></rc>
    <rc><c>Pt</c><c>   1</c></rc>
    <rc><c>Pt</c><c>   1</c></rc>
    <rc><c>Pt</c><c>   1</c></rc>
    <rc><c>Pt</c><c>   1</c></rc>
    <rc><c>Pt</c><c>   1</c></rc>
    <rc><c>Pt</c><c>   1</c></rc>
    <rc><c>Pt</c><c>   1</c></rc>
    <rc><c>Pt</c><c>   1</c></rc>
    <rc><c>Pt</c><c>   1</c></rc>
    <rc><c>Pt</c><c>   1</c></rc>
    <rc><c>Pt</c><c>   1</c></rc>
    <rc><c>Pt</c><c>   1</c></rc>
    <rc><c>Pt</c><c>   1</c></rc>
    <rc><c>Pt</c><c>   1</c></rc>
    <rc><c>Pt</c><c>   1</c></rc>
    <rc><c>Pt</c><c>   1</c></rc>
    <rc><c>Pt</c><c>   1</c></rc>
    <rc><c>Pt</c><c>   1</c></rc>
    <rc><c>Pt</c><c>   1</c></rc>
    <rc><c>C </c><c>   2</c></rc>
    <rc><c>C </c><c>   2</c></rc>
    <rc><c>H </c><c>   3</c></rc>
    <rc><c>H </c><c>   3</c></rc>
    <rc><c>H </c><c>   3</c></rc>
    <rc><c>H </c><c>   3</c></rc>
   </set>
  </array>
  <array name="atomtypes" >
   <dimension dim="1">type</dimension>
   <field type="int">atomspertype</field>
   <field type="string">element</field>
   <field>mass</field>
   <field>valence</field>
   <field type="string">pseudopotential</field>
   <set>
    <rc><c>  36</c><c>Pt</c><c>    195.08000000</c><c>     10.00000000</c><c>  PAW_PBE Pt 04Feb2005                  </c></rc>
    <rc><c>   2</c><c>C </c><c>     12.01100000</c><c>      4.00000000</c><c>  PAW_PBE C 08Apr2002                   </c></rc>
    <rc><c>   4</c><c>H </c><c>      1.00000000</c><c>      1.00000000</c><c>  PAW_PBE H 15Jun2001                   </c></rc>
   </set>
  </array>
 </atominfo>
 <structure name="initialpos" >
  <crystal>
   <varray name="basis" >
    <v>       8.42164176       0.00000000       0.00000000 </v>
    <v>       4.21082088       7.29335571       0.00000000 </v>
    <v>       0.00000000       0.00000000      21.87624171 </v>
   </varray>
   <i name="volume">   1343.68315334 </i>
   <varray name="rec_basis" >
    <v>       0.11874169      -0.06855555       0.00000000 </v>
    <v>       0.00000000       0.13711110       0.00000000 </v>
    <v>       0.00000000       0.00000000       0.04571169 </v>
   </varray>
  </crystal>
  <varray name="positions" >
   <v>       0.00000000       0.00000000       0.34283768 </v>
   <v>       0.33333333       0.00000000       0.34283768 </v>
   <v>       0.66666667       0.00000000       0.34283768 </v>
   <v>       0.00000000       0.33333333       0.34283768 </v>
   <v>       0.33333333       0.33333333       0.34283768 </v>
   <v>       0.66666667       0.33333333       0.34283768 </v>
   <v>       0.00000000       0.66666667       0.34283768 </v>
   <v>       0.33333333       0.66666667       0.34283768 </v>
   <v>       0.66666667       0.66666667       0.34283768 </v>
   <v>       0.11111111       0.11111111       0.44761256 </v>
   <v>       0.44444444       0.11111111       0.44761256 </v>
   <v>       0.77777778       0.11111111       0.44761256 </v>
   <v>       0.11111111       0.44444444       0.44761256 </v>
   <v>       0.44444444       0.44444444       0.44761256 </v>
   <v>       0.77777778       0.44444444       0.44761256 </v>
   <v>       0.11111111       0.77777778       0.44761256 </v>
   <v>       0.44444444       0.77777778       0.44761256 </v>
   <v>       0.77777778       0.77777778       0.44761256 </v>
   <v>       0.88880269       0.22246864       0.55074865 </v>
   <v>       0.22286731       0.22383398       0.55225837 </v>
   <v>       0.55421601       0.22242033       0.55214179 </v>
   <v>       0.88797649       0.55650505       0.55106743 </v>
   <v>       0.22267469       0.55251921       0.55284426 </v>
   <v>       0.55401487       0.55710024       0.55069641 </v>
   <v>       0.88442469       0.89087452       0.55271808 </v>
   <v>       0.22045978       0.88875937       0.55045762 </v>
   <v>       0.55546855       0.89103318       0.55223428 </v>
   <v>       0.99711981       0.00121383       0.65602023 </v>
   <v>       0.32786159       0.99896524       0.65492262 </v>
   <v>       0.66129139       0.00484446       0.66420994 </v>
   <v>       0.99755567       0.33557713       0.65601588 </v>
   <v>       0.33449545       0.33204052       0.66454342 </v>
   <v>       0.66653639       0.33714803       0.65462989 </v>
   <v>       0.99701562       0.66792043       0.65632529 </v>
   <v>       0.32992381       0.66836691       0.65608148 </v>
   <v>       0.66407476       0.66858163       0.65604814 </v>
   <v>       0.41057677       0.25630111       0.75671477 </v>
   <v>       0.58695348       0.07968935       0.75647312 </v>
   <v>       0.41944836       0.37246933       0.77552328 </v>
   <v>       0.29417945       0.24780372       0.77549050 </v>
   <v>       0.70390050       0.08785725       0.77491244 </v>
   <v>       0.57853529       0.96311503       0.77512002 </v>
  </varray>
  <varray name="selective"  type="logical" >
   <v type="logical" >  F  F  F </v>
   <v type="logical" >  F  F  F </v>
   <v type="logical" >  F  F  F </v>
   <v type="logical" >  F  F  F </v>
   <v type="logical" >  F  F  F </v>
   <v type="logical" >  F  F  F </v>
   <v type="logical" >  F  F  F </v>
   <v type="logical" >  F  F  F </v>
   <v type="logical" >  F  F  F </v>
   <v type="logical" >  F  F  F </v>
   <v type="logical" >  F  F  F </v>
   <v type="logical" >  F  F  F </v>
   <v type="logical" >  F  F  F </v>
   <v type="logical" >  F  F  F </v>
   <v type="logical" >  F  F  F </v>
   <v type="logical" >  F  F  F </v>
   <v type="logical" >  F  F  F </v>
   <v type="logical" >  F  F  F </v>
   <v type="logical" >  T  T  T </v>
   <v type="logical" >  T  T  T </v>
   <v type="logical" >  T  T  T </v>
   <v type="logical" >  T  T  T </v>
   <v type="logical" >  T  T  T </v>
   <v type="logical" >  T  T  T </v>
   <v type="logical" >  T  T  T </v>
   <v type="logical" >  T  T  T </v>
   <v type="logical" >  T  T  T </v>
   <v type="logical" >  T  T  T </v>
   <v type="logical" >  T  T  T </v>
   <v type="logical" >  T  T  T </v>
   <v type="logical" >  T  T  T </v>
   <v type="logical" >  T  T  T </v>
   <v type="logical" >  T  T  T </v>
   <v type="logical" >  T  T  T </v>
   <v type="logical" >  T  T  T </v>
   <v type="logical" >  T  T  T </v>
   <v type="logical" >  T  T  T </v>
   <v type="logical" >  T  T  T </v>
   <v type="logical" >  T  T  T </v>
   <v type="logical" >  T  T  T </v>
   <v type="logical" >  T  T  T </v>
   <v type="logical" >  T  T  T </v>
  </varray>
  <nose>
   <v>      -3.00000000       0.00000000       0.00010000       0.00010000 </v>
  </nose>
 </structure>
 <calculation>
  <scstep>
   <time name="dav">   70.59   70.72</time>
   <time name="total">   71.58   71.73</time>
   <energy>
    <i name="alphaZ">    961.48010405 </i>
    <i name="ewald">  91294.51541456 </i>
    <i name="hartreedc">-119759.57002737 </i>
    <i name="XCdc">    156.91314923 </i>
    <i name="pawpsdc">  25286.02747792 </i>
    <i name="pawaedc"> -24269.00514459 </i>
    <i name="eentropy">     -0.55363276 </i>
    <i name="bandstr">   1937.04680572 </i>
    <i name="atom">  26592.19924351 </i>
    <i name="e_fr_energy">   2199.05339025 </i>
    <i name="e_wo_entrp">   2199.60702302 </i>
    <i name="e_0_energy">   2199.33020663 </i>
   </energy>
  </scstep>
  <scstep>
   <time name="dav">   83.10   83.13</time>
   <time name="total">   83.11   83.28</time>
   <energy>
    <i name="e_fr_energy">    -93.93245858 </i>
    <i name="e_wo_entrp">    -92.84690459 </i>
    <i name="e_0_energy">    -93.38968159 </i>
   </energy>
  </scstep>
  <scstep>
   <time name="dav">   84.99   85.77</time>
   <time name="total">   85.00   85.84</time>
   <energy>
    <i name="e_fr_energy">   -254.50303646 </i>
    <i name="e_wo_entrp">   -252.61000687 </i>
    <i name="e_0_energy">   -253.55652167 </i>
   </energy>
  </scstep>
  <scstep>
   <time name="dav">   88.07   88.05</time>
   <time name="total">   90.55   90.57</time>
   <energy>
    <i name="e_fr_energy">   -261.50131197 </i>
    <i name="e_wo_entrp">   -259.54918608 </i>
    <i name="e_0_energy">   -260.52524902 </i>
   </energy>
  </scstep>
  <scstep>
   <time name="diag">   11.80   11.80</time>
   <time name="diis">   29.10   29.13</time>
   <time name="orth">    3.09    3.12</time>
   <time name="total">   46.91   47.00</time>
   <energy>
    <i name="e_fr_energy">   -248.71298921 </i>
    <i name="e_wo_entrp">   -246.65803381 </i>
    <i name="e_0_energy">   -247.68551151 </i>
   </energy>
  </scstep>
  <scstep>
   <time name="diag">   10.87   10.87</time>
   <time name="diis">   28.77   28.99</time>
   <time name="orth">    2.93    3.04</time>
   <time name="total">   44.95   45.40</time>
   <energy>
    <i name="e_fr_energy">   -286.44951480 </i>
    <i name="e_wo_entrp">   -285.23164692 </i>
    <i name="e_0_energy">   -285.84058086 </i>
   </energy>
  </scstep>
  <scstep>
   <time name="diag">   11.26   11.26</time>
   <time name="diis">   28.45   28.70</time>
   <time name="orth">    3.90    4.00</time>
   <time name="total">   46.15   46.54</time>
   <energy>
    <i name="e_fr_energy">   -244.55583660 </i>
    <i name="e_wo_entrp">   -242.50259855 </i>
    <i name="e_0_energy">   -243.52921758 </i>
   </energy>
  </scstep>
  <scstep>
   <time name="diag">   10.71   10.80</time>
   <time name="diis">   28.15   29.21</time>
   <time name="orth">    2.90    2.96</time>
   <time name="total">   44.24   45.50</time>
   <energy>
    <i name="e_fr_energy">   -246.34018349 </i>
    <i name="e_wo_entrp">   -244.33002244 </i>
    <i name="e_0_energy">   -245.33510296 </i>
   </energy>
  </scstep>
  <scstep>
   <time name="diag">   10.88   10.88</time>
   <time name="diis">   29.10   29.25</time>
   <time name="orth">    3.03    3.05</time>
   <time name="total">   45.58   45.78</time>
   <energy>
    <i name="e_fr_energy">   -249.65206217 </i>
    <i name="e_wo_entrp">   -247.97739270 </i>
    <i name="e_0_energy">   -248.81472744 </i>
   </energy>
  </scstep>
  <scstep>
   <time name="diag">   10.91   11.00</time>
   <time name="diis">   28.95   29.09</time>
   <time name="orth">    3.00    3.03</time>
   <time name="total">   45.31   45.58</time>
   <energy>
    <i name="e_fr_energy">   -242.74821688 </i>
    <i name="e_wo_entrp">   -240.63766839 </i>
    <i name="e_0_energy">   -241.69294264 </i>
   </energy>
  </scstep>
  <scstep>
   <time name="diag">   10.68   10.69</time>
   <time name="diis">   30.45   30.44</time>
   <time name="orth">    3.12    3.15</time>
   <time name="total">   46.86   46.93</time>
   <energy>
    <i name="e_fr_energy">   -242.56373821 </i>
    <i name="e_wo_entrp">   -240.43830672 </i>
    <i name="e_0_energy">   -241.50102247 </i>
   </energy>
  </scstep>
  <scstep>
   <time name="diag">   10.76   10.75</time>
   <time name="diis">   30.02   30.29</time>
   <time name="orth">    3.03    3.04</time>
   <time name="total">   46.20   46.54</time>
   <energy>
    <i name="e_fr_energy">   -242.52180639 </i>
    <i name="e_wo_entrp">   -240.39838388 </i>
    <i name="e_0_energy">   -241.46009513 </i>
   </energy>
  </scstep>
  <scstep>
   <time name="diag">   10.68   10.89</time>
   <time name="diis">   29.13   29.39</time>
   <time name="orth">    3.06    3.08</time>
   <time name="total">   45.53   46.05</time>
   <energy>
    <i name="e_fr_energy">   -242.48372496 </i>
    <i name="e_wo_entrp">   -240.36343559 </i>
    <i name="e_0_energy">   -241.42358028 </i>
   </energy>
  </scstep>
  <scstep>
   <time name="diag">   10.77   10.79</time>
   <time name="diis">   29.00   29.20</time>
   <time name="orth">    2.99    3.03</time>
   <time name="total">   45.11   45.46</time>
   <energy>
    <i name="e_fr_energy">   -242.45702355 </i>
    <i name="e_wo_entrp">   -240.34173168 </i>
    <i name="e_0_energy">   -241.39937761 </i>
   </energy>
  </scstep>
  <scstep>
   <time name="diag">   11.85   12.21</time>
   <time name="diis">   29.50   29.51</time>
   <time name="orth">    3.09    3.12</time>
   <time name="total">   48.46   49.51</time>
   <energy>
    <i name="e_fr_energy">   -242.44646503 </i>
    <i name="e_wo_entrp">   -240.32819299 </i>
    <i name="e_0_energy">   -241.38732901 </i>
   </energy>
  </scstep>
  <scstep>
   <time name="diag">   10.99   11.02</time>
   <time name="diis">   29.90   30.04</time>
   <time name="orth">    3.13    3.15</time>
   <time name="total">   46.41   46.63</time>
   <energy>
    <i name="e_fr_energy">   -242.44193365 </i>
    <i name="e_wo_entrp">   -240.32009490 </i>
    <i name="e_0_energy">   -241.38101428 </i>
   </energy>
  </scstep>
  <scstep>
   <time name="diag">   10.87   10.88</time>
   <time name="diis">   30.04   30.20</time>
   <time name="orth">    4.75    4.78</time>
   <time name="total">   48.72   48.96</time>
   <energy>
    <i name="e_fr_energy">   -242.44200204 </i>
    <i name="e_wo_entrp">   -240.32028108 </i>
    <i name="e_0_energy">   -241.38114156 </i>
   </energy>
  </scstep>
  <scstep>
   <time name="diag">   10.69   10.76</time>
   <time name="diis">   29.10   29.29</time>
   <time name="orth">    3.10    3.11</time>
   <time name="total">   45.21   45.57</time>
   <energy>
    <i name="e_fr_energy">   -242.44143891 </i>
    <i name="e_wo_entrp">   -240.31951779 </i>
    <i name="e_0_energy">   -241.38047835 </i>
   </energy>
  </scstep>
  <scstep>
   <time name="diag">   10.81   10.82</time>
   <time name="diis">   28.99   29.07</time>
   <time name="orth">    3.13    3.12</time>
   <time name="total">   45.39   45.52</time>
   <energy>
    <i name="e_fr_energy">   -242.44102665 </i>
    <i name="e_wo_entrp">   -240.31838868 </i>
    <i name="e_0_energy">   -241.37970766 </i>
   </energy>
  </scstep>
  <scstep>
   <time name="diag">   10.82   10.86</time>
   <time name="diis">   28.58   28.95</time>
   <time name="orth">    2.98    3.01</time>
   <time name="total">   44.81   45.27</time>
   <energy>
    <i name="e_fr_energy">   -242.44094511 </i>
    <i name="e_wo_entrp">   -240.31740026 </i>
    <i name="e_0_energy">   -241.37917268 </i>
   </energy>
  </scstep>
  <scstep>
   <time name="diag">   11.27   11.30</time>
   <time name="diis">   30.81   30.88</time>
   <time name="orth">    3.09    3.12</time>
   <time name="total">   49.54   49.77</time>
   <energy>
    <i name="e_fr_energy">   -242.44112018 </i>
    <i name="e_wo_entrp">   -240.31728792 </i>
    <i name="e_0_energy">   -241.37920405 </i>
   </energy>
  </scstep>
  <scstep>
   <time name="diag">   10.66   10.84</time>
   <time name="diis">   29.07   29.17</time>
   <time name="orth">    3.03    3.08</time>
   <time name="total">   45.22   45.56</time>
   <energy>
    <i name="e_fr_energy">   -242.44138589 </i>
    <i name="e_wo_entrp">   -240.31830367 </i>
    <i name="e_0_energy">   -241.37984478 </i>
   </energy>
  </scstep>
  <scstep>
   <time name="diag">   10.84   11.05</time>
   <time name="diis">   30.29   30.50</time>
   <time name="orth">    3.20    3.20</time>
   <time name="total">   46.83   47.30</time>
   <energy>
    <i name="e_fr_energy">   -242.44158166 </i>
    <i name="e_wo_entrp">   -240.31870277 </i>
    <i name="e_0_energy">   -241.38014221 </i>
   </energy>
  </scstep>
  <scstep>
   <time name="diag">   11.02   11.03</time>
   <time name="diis">   28.69   28.94</time>
   <time name="orth">    2.99    3.02</time>
   <time name="total">   45.11   45.43</time>
   <energy>
    <i name="e_fr_energy">   -242.44189693 </i>
    <i name="e_wo_entrp">   -240.31888073 </i>
    <i name="e_0_energy">   -241.38038883 </i>
   </energy>
  </scstep>
  <scstep>
   <time name="diag">   10.72   10.79</time>
   <time name="diis">   30.03   30.31</time>
   <time name="orth">    2.91    2.94</time>
   <time name="total">   46.27   46.74</time>
   <energy>
    <i name="e_fr_energy">   -242.44213677 </i>
    <i name="e_wo_entrp">   -240.31915614 </i>
    <i name="e_0_energy">   -241.38064645 </i>
   </energy>
  </scstep>
  <scstep>
   <time name="diag">   10.72   10.71</time>
   <time name="diis">   29.24   29.22</time>
   <time name="orth">    2.91    2.92</time>
   <time name="total">   45.27   45.27</time>
   <energy>
    <i name="e_fr_energy">   -242.44246101 </i>
    <i name="e_wo_entrp">   -240.31940067 </i>
    <i name="e_0_energy">   -241.38093084 </i>
   </energy>
  </scstep>
  <scstep>
   <time name="diag">   10.70   10.78</time>
   <time name="diis">   26.59   26.87</time>
   <time name="orth">    2.94    2.96</time>
   <time name="total">   43.72   44.14</time>
   <energy>
    <i name="e_fr_energy">   -242.44270004 </i>
    <i name="e_wo_entrp">   -240.31969507 </i>
    <i name="e_0_energy">   -241.38119756 </i>
   </energy>
  </scstep>
  <scstep>
   <time name="diag">   10.73   10.81</time>
   <time name="diis">   23.24   23.23</time>
   <time name="orth">    3.04    3.04</time>
   <time name="total">   39.41   39.49</time>
   <energy>
    <i name="e_fr_energy">   -242.44281467 </i>
    <i name="e_wo_entrp">   -240.31979854 </i>
    <i name="e_0_energy">   -241.38130660 </i>
   </energy>
  </scstep>
  <scstep>
   <time name="diag">   10.69   10.75</time>
   <time name="diis">   23.38   23.61</time>
   <time name="orth">    3.02    3.13</time>
   <time name="total">   40.01   40.66</time>
   <energy>
    <i name="e_fr_energy">   -242.44302590 </i>
    <i name="e_wo_entrp">   -240.31990018 </i>
    <i name="e_0_energy">   -241.38146304 </i>
   </energy>
  </scstep>
  <scstep>
   <time name="diag">   10.63   10.79</time>
   <time name="diis">   21.18   21.45</time>
   <time name="orth">    3.13    3.18</time>
   <time name="total">   37.38   37.87</time>
   <energy>
    <i name="e_fr_energy">   -242.44311204 </i>
    <i name="e_wo_entrp">   -240.31998967 </i>
    <i name="e_0_energy">   -241.38155086 </i>
   </energy>
  </scstep>
  <scstep>
   <time name="diag">   11.00   10.99</time>
   <time name="diis">   21.11   21.10</time>
   <time name="orth">    3.15    3.22</time>
   <time name="total">   37.85   38.19</time>
   <energy>
    <i name="e_fr_energy">   -242.44320794 </i>
    <i name="e_wo_entrp">   -240.32008694 </i>
    <i name="e_0_energy">   -241.38164744 </i>
   </energy>
  </scstep>
  <scstep>
   <time name="diag">   10.97   10.99</time>
   <time name="diis">   18.01   17.99</time>
   <time name="orth">    3.03    3.07</time>
   <time name="total">   34.43   34.50</time>
   <energy>
    <i name="e_fr_energy">   -242.44322355 </i>
    <i name="e_wo_entrp">   -240.32011241 </i>
    <i name="e_0_energy">   -241.38166798 </i>
   </energy>
  </scstep>
  <scstep>
   <time name="diag">   10.64   10.80</time>
   <time name="diis">   17.53   17.67</time>
   <time name="orth">    3.04    3.10</time>
   <time name="total">   33.62   34.07</time>
   <energy>
    <i name="e_fr_energy">   -242.44324478 </i>
    <i name="e_wo_entrp">   -240.32014106 </i>
    <i name="e_0_energy">   -241.38169292 </i>
   </energy>
  </scstep>
  <scstep>
   <time name="diag">   10.60   10.83</time>
   <time name="diis">   15.53   15.66</time>
   <time name="orth">    2.98    3.07</time>
   <time name="total">   31.47   31.98</time>
   <energy>
    <i name="e_fr_energy">   -242.44325132 </i>
    <i name="e_wo_entrp">   -240.32014616 </i>
    <i name="e_0_energy">   -241.38169874 </i>
   </energy>
  </scstep>
  <scstep>
   <time name="diag">   10.72   10.85</time>
   <time name="diis">   16.86   16.85</time>
   <time name="orth">    2.92    2.95</time>
   <time name="total">   33.06   33.35</time>
   <energy>
    <i name="e_fr_energy">   -242.44325763 </i>
    <i name="e_wo_entrp">   -240.32014937 </i>
    <i name="e_0_energy">   -241.38170350 </i>
   </energy>
  </scstep>
  <scstep>
   <time name="diag">   10.65   10.70</time>
   <time name="diis">   14.40   14.47</time>
   <time name="orth">    2.93    3.04</time>
   <time name="total">   30.35   30.65</time>
   <energy>
    <i name="e_fr_energy">   -242.44325952 </i>
    <i name="e_wo_entrp">   -240.32015025 </i>
    <i name="e_0_energy">   -241.38170489 </i>
   </energy>
  </scstep>
  <scstep>
   <time name="diag">   11.63   11.75</time>
   <time name="diis">   14.72   14.94</time>
   <time name="orth">    3.09    3.10</time>
   <time name="total">   31.84   32.26</time>
   <energy>
    <i name="e_fr_energy">   -242.44326143 </i>
    <i name="e_wo_entrp">   -240.32015325 </i>
    <i name="e_0_energy">   -241.38170734 </i>
   </energy>
  </scstep>
  <scstep>
   <time name="diag">   10.83   10.87</time>
   <time name="diis">   13.57   13.56</time>
   <time name="orth">    3.08    3.11</time>
   <time name="total">   27.56   27.65</time>
   <energy>
    <i name="alphaZ">    961.48010405 </i>
    <i name="ewald">  91294.51541456 </i>
    <i name="hartreedc">-119496.82496066 </i>
    <i name="XCdc">    146.91669979 </i>
    <i name="pawpsdc">  32426.62684999 </i>
    <i name="pawaedc"> -31507.52798728 </i>
    <i name="eentropy">     -2.12310716 </i>
    <i name="bandstr">   -657.70551881 </i>
    <i name="atom">  26592.19924351 </i>
    <i name="e_fr_energy">   -242.44326203 </i>
    <i name="e_wo_entrp">   -240.32015487 </i>
    <i name="e_0_energy">   -241.38170845 </i>
   </energy>
  </scstep>
  <structure>
   <crystal>
    <varray name="basis" >
     <v>       8.42164176       0.00000000       0.00000000 </v>
     <v>       4.21082088       7.29335571       0.00000000 </v>
     <v>       0.00000000       0.00000000      21.87624171 </v>
    </varray>
    <i name="volume">   1343.68315334 </i>
    <varray name="rec_basis" >
     <v>       0.11874169      -0.06855555       0.00000000 </v>
     <v>       0.00000000       0.13711110       0.00000000 </v>
     <v>       0.00000000       0.00000000       0.04571169 </v>
    </varray>
   </crystal>
   <varray name="positions" >
    <v>       0.00000000       0.00000000       0.34283768 </v>
    <v>       0.33333333       0.00000000       0.34283768 </v>
    <v>       0.66666667       0.00000000       0.34283768 </v>
    <v>       0.00000000       0.33333333       0.34283768 </v>
    <v>       0.33333333       0.33333333       0.34283768 </v>
    <v>       0.66666667       0.33333333       0.34283768 </v>
    <v>       0.00000000       0.66666667       0.34283768 </v>
    <v>       0.33333333       0.66666667       0.34283768 </v>
    <v>       0.66666667       0.66666667       0.34283768 </v>
    <v>       0.11111111       0.11111111       0.44761256 </v>
    <v>       0.44444444       0.11111111       0.44761256 </v>
    <v>       0.77777778       0.11111111       0.44761256 </v>
    <v>       0.11111111       0.44444444       0.44761256 </v>
    <v>       0.44444444       0.44444444       0.44761256 </v>
    <v>       0.77777778       0.44444444       0.44761256 </v>
    <v>       0.11111111       0.77777778       0.44761256 </v>
    <v>       0.44444444       0.77777778       0.44761256 </v>
    <v>       0.77777778       0.77777778       0.44761256 </v>
    <v>       0.88880269       0.22246864       0.55074865 </v>
    <v>       0.22286731       0.22383398       0.55225837 </v>
    <v>       0.55421601       0.22242033       0.55214179 </v>
    <v>       0.88797649       0.55650505       0.55106743 </v>
    <v>       0.22267469       0.55251921       0.55284426 </v>
    <v>       0.55401487       0.55710024       0.55069641 </v>
    <v>       0.88442469       0.89087452       0.55271808 </v>
    <v>       0.22045978       0.88875937       0.55045762 </v>
    <v>       0.55546855       0.89103318       0.55223428 </v>
    <v>       0.99711981       0.00121383       0.65602023 </v>
    <v>       0.32786159       0.99896524       0.65492262 </v>
    <v>       0.66129139       0.00484446       0.66420994 </v>
    <v>       0.99755567       0.33557713       0.65601588 </v>
    <v>       0.33449545       0.33204052       0.66454342 </v>
    <v>       0.66653639       0.33714803       0.65462989 </v>
    <v>       0.99701562       0.66792043       0.65632529 </v>
    <v>       0.32992381       0.66836691       0.65608148 </v>
    <v>       0.66407476       0.66858163       0.65604814 </v>
    <v>       0.41057677       0.25630111       0.75671477 </v>
    <v>       0.58695348       0.07968935       0.75647312 </v>
    <v>       0.41944836       0.37246933       0.77552328 </v>
    <v>       0.29417945       0.24780372       0.77549050 </v>
    <v>       0.70390050       0.08785725       0.77491244 </v>
    <v>       0.57853529       0.96311503       0.77512002 </v>
   </varray>
  </structure>
  <varray name="forces" >
   <v>      -0.00863292       0.00168817      -0.10784071 </v>
   <v>      -0.00531731      -0.00821840      -0.04585366 </v>
   <v>       0.01567536      -0.00674134      -0.06280322 </v>
   <v>      -0.00313649      -0.01572992      -0.05334293 </v>
   <v>       0.00702134       0.00904666      -0.06296570 </v>
   <v>       0.00407706      -0.00421757      -0.06235842 </v>
   <v>       0.02745484       0.01057966      -0.04253928 </v>
   <v>      -0.00114872      -0.01446793      -0.10608266 </v>
   <v>      -0.00949142      -0.00273752      -0.05263834 </v>
   <v>      -0.01289327      -0.01186217      -0.03378853 </v>
   <v>       0.00527010       0.00932109       0.23370872 </v>
   <v>       0.00245698      -0.06414647       0.07034106 </v>
   <v>       0.05720076       0.00120634       0.18166652 </v>
   <v>      -0.06334772       0.04196565       0.06932668 </v>
   <v>       0.00211853       0.00538363      -0.00845451 </v>
   <v>      -0.01603243      -0.00697798      -0.00929990 </v>
   <v>      -0.02351906       0.00522344      -0.03993232 </v>
   <v>       0.02266565       0.05643043       0.17208270 </v>
   <v>       0.00335037       0.00075064      -0.01023146 </v>
   <v>      -0.00579136      -0.00128366      -0.00274514 </v>
   <v>       0.00623901       0.00849288      -0.01098316 </v>
   <v>       0.00100732       0.00235972      -0.00275021 </v>
   <v>       0.00167303       0.00525881      -0.00060671 </v>
   <v>      -0.00089342       0.00722705       0.00285080 </v>
   <v>       0.00152263       0.00338101      -0.00065829 </v>
   <v>       0.00133791       0.00546106      -0.01283286 </v>
   <v>      -0.00625689       0.00018417      -0.00342755 </v>
   <v>      -0.00217255      -0.00214246       0.00206246 </v>
   <v>       0.00277888      -0.00386699       0.00218055 </v>
   <v>      -0.00059027      -0.00213725      -0.00449459 </v>
   <v>       0.00512517      -0.01071618       0.00084458 </v>
   <v>      -0.00298528      -0.01172379      -0.00537626 </v>
   <v>       0.00090945       0.00506473       0.00643685 </v>
   <v>       0.00621869       0.00174069       0.01504710 </v>
   <v>      -0.00185482      -0.00896100      -0.01047781 </v>
   <v>       0.00310456       0.00732158      -0.00421418 </v>
   <v>      -0.00495305      -0.00234702       0.00228315 </v>
   <v>      -0.00085600      -0.00171987       0.00428132 </v>
   <v>      -0.00860653       0.00595551      -0.01233214 </v>
   <v>      -0.00169007       0.00528929      -0.00159538 </v>
   <v>      -0.00685099      -0.01174081       0.00462832 </v>
   <v>       0.00981292      -0.00759388       0.00288512 </v>
  </varray>
  <varray name="stress" >
   <v>     -43.16544459       0.84798979       0.06574331 </v>
   <v>       0.84798991     -43.90418160      -0.22304511 </v>
   <v>       0.06574338      -0.22304513      -0.43358854 </v>
  </varray>
  <energy>
   <i name="e_fr_energy">   -242.44326203 </i>
   <i name="e_wo_entrp">   -241.38170845 </i>
   <i name="e_0_energy">     -2.12310716 </i>
  </energy>
  <time name="totalsc"> 1813.12 1826.69</time>
  <eigenvalues>
   <array>
    <dimension dim="1">band</dimension>
    <dimension dim="2">kpoint</dimension>
    <dimension dim="3">spin</dimension>
    <field>eigene</field>
    <field>occ</field>
    <set>
     <set comment="spin 1">
      <set comment="kpoint 1">
       <r>  -12.7278    1.0000 </r>
       <r>   -8.7123    1.0000 </r>
       <r>   -7.7591    1.0000 </r>
       <r>   -6.4559    1.0000 </r>
       <r>   -5.4793    1.0000 </r>
       <r>   -5.4134    1.0000 </r>
       <r>   -5.3605    1.0000 </r>
       <r>   -5.3468    1.0000 </r>
       <r>   -5.3338    1.0000 </r>
       <r>   -5.2582    1.0000 </r>
       <r>   -5.1896    1.0000 </r>
       <r>   -5.1842    1.0000 </r>
       <r>   -5.1524    1.0000 </r>
       <r>   -4.7911    1.0000 </r>
       <r>   -4.7138    1.0000 </r>
       <r>   -4.6935    1.0000 </r>
       <r>   -4.6876    1.0000 </r>
       <r>   -4.6725    1.0000 </r>
       <r>   -4.6648    1.0000 </r>
       <r>   -4.5521    1.0000 </r>
       <r>   -4.2223    1.0000 </r>
       <r>   -4.1997    1.0000 </r>
       <r>   -4.1925    1.0000 </r>
       <r>   -4.1765    1.0000 </r>
       <r>   -4.1536    1.0000 </r>
       <r>   -4.1269    1.0000 </r>
       <r>   -4.0500    1.0000 </r>
       <r>   -4.0101    1.0000 </r>
       <r>   -4.0096    1.0000 </r>
       <r>   -3.9014    1.0000 </r>
       <r>   -3.8866    1.0000 </r>
       <r>   -3.8537    1.0000 </r>
       <r>   -3.8063    1.0000 </r>
       <r>   -3.7939    1.0000 </r>
       <r>   -3.7776    1.0000 </r>
       <r>   -3.7563    1.0000 </r>
       <r>   -3.7514    1.0000 </r>
       <r>   -3.7271    1.0000 </r>
       <r>   -3.7259    1.0000 </r>
       <r>   -3.6647    1.0000 </r>
       <r>   -3.6557    1.0000 </r>
       <r>   -3.5996    1.0000 </r>
       <r>   -3.5675    1.0000 </r>
       <r>   -3.5424    1.0000 </r>
       <r>   -3.2528    1.0000 </r>
       <r>   -3.1917    1.0000 </r>
       <r>   -3.1100    1.0000 </r>
       <r>   -3.1005    1.0000 </r>
       <r>   -3.0888    1.0000 </r>
       <r>   -3.0827    1.0000 </r>
       <r>   -3.0585    1.0000 </r>
       <r>   -3.0027    1.0000 </r>
       <r>   -2.9859    1.0000 </r>
       <r>   -2.9213    1.0000 </r>
       <r>   -2.8841    1.0000 </r>
       <r>   -2.8683    1.0000 </r>
       <r>   -2.8103    1.0000 </r>
       <r>   -2.8015    1.0000 </r>
       <r>   -2.7599    1.0000 </r>
       <r>   -2.6961    1.0000 </r>
       <r>   -2.2966    1.0000 </r>
       <r>   -2.2661    1.0000 </r>
       <r>   -2.2531    1.0000 </r>
       <r>   -2.2218    1.0000 </r>
       <r>   -2.1905    1.0000 </r>
       <r>   -2.1800    1.0000 </r>
       <r>   -2.1513    1.0000 </r>
       <r>   -2.1364    1.0000 </r>
       <r>   -2.1275    1.0000 </r>
       <r>   -2.1209    1.0000 </r>
       <r>   -2.0835    1.0000 </r>
       <r>   -2.0764    1.0000 </r>
       <r>   -2.0236    1.0000 </r>
       <r>   -2.0178    1.0000 </r>
       <r>   -2.0129    1.0000 </r>
       <r>   -1.9974    1.0000 </r>
       <r>   -1.9676    1.0000 </r>
       <r>   -1.9019    1.0000 </r>
       <r>   -1.9005    1.0000 </r>
       <r>   -1.8879    1.0000 </r>
       <r>   -1.8766    1.0000 </r>
       <r>   -1.8431    1.0000 </r>
       <r>   -1.8157    1.0000 </r>
       <r>   -1.7936    1.0000 </r>
       <r>   -1.7428    1.0000 </r>
       <r>   -1.7327    1.0000 </r>
       <r>   -1.7087    1.0000 </r>
       <r>   -1.6350    1.0000 </r>
       <r>   -1.6083    1.0000 </r>
       <r>   -1.5816    1.0000 </r>
       <r>   -1.5745    1.0000 </r>
       <r>   -1.5410    1.0000 </r>
       <r>   -1.5209    1.0000 </r>
       <r>   -1.5027    1.0000 </r>
       <r>   -1.4923    1.0000 </r>
       <r>   -1.4696    1.0000 </r>
       <r>   -1.4665    1.0000 </r>
       <r>   -1.4391    1.0000 </r>
       <r>   -1.4057    1.0000 </r>
       <r>   -1.3810    1.0000 </r>
       <r>   -1.3676    1.0000 </r>
       <r>   -1.3586    1.0000 </r>
       <r>   -1.2863    1.0000 </r>
       <r>   -1.2529    1.0000 </r>
       <r>   -1.2295    1.0000 </r>
       <r>   -1.2030    1.0000 </r>
       <r>   -1.2027    1.0000 </r>
       <r>   -1.1566    1.0000 </r>
       <r>   -1.1399    1.0000 </r>
       <r>   -1.1090    1.0000 </r>
       <r>   -1.0966    1.0000 </r>
       <r>   -1.0640    1.0000 </r>
       <r>   -0.9157    1.0000 </r>
       <r>   -0.8612    1.0000 </r>
       <r>   -0.8210    1.0000 </r>
       <r>   -0.7914    1.0000 </r>
       <r>   -0.7375    1.0000 </r>
       <r>   -0.7297    1.0000 </r>
       <r>   -0.6911    1.0000 </r>
       <r>   -0.6119    1.0000 </r>
       <r>   -0.6002    1.0000 </r>
       <r>   -0.5818    1.0000 </r>
       <r>   -0.5669    1.0000 </r>
       <r>   -0.5390    1.0000 </r>
       <r>   -0.5069    1.0000 </r>
       <r>   -0.4664    1.0000 </r>
       <r>   -0.4280    1.0000 </r>
       <r>   -0.3872    1.0000 </r>
       <r>   -0.3357    1.0000 </r>
       <r>   -0.2868    1.0000 </r>
       <r>   -0.1758    1.0000 </r>
       <r>   -0.1436    1.0000 </r>
       <r>   -0.1267    1.0000 </r>
       <r>   -0.0663    1.0000 </r>
       <r>   -0.0535    1.0000 </r>
       <r>   -0.0338    1.0000 </r>
       <r>   -0.0283    1.0000 </r>
       <r>   -0.0207    1.0000 </r>
       <r>    0.0033    1.0000 </r>
       <r>    0.0109    1.0000 </r>
       <r>    0.0940    1.0000 </r>
       <r>    0.1192    1.0000 </r>
       <r>    0.1284    1.0000 </r>
       <r>    0.1954    1.0000 </r>
       <r>    0.2318    1.0000 </r>
       <r>    0.2548    1.0000 </r>
       <r>    0.2863    1.0000 </r>
       <r>    0.3128    1.0000 </r>
       <r>    0.3166    1.0000 </r>
       <r>    0.3273    1.0000 </r>
       <r>    0.3749    1.0000 </r>
       <r>    0.4191    1.0000 </r>
       <r>    0.5272    0.9999 </r>
       <r>    0.5510    0.9999 </r>
       <r>    0.5563    0.9999 </r>
       <r>    0.5912    0.9999 </r>
       <r>    0.6038    0.9998 </r>
       <r>    0.6255    0.9998 </r>
       <r>    0.6297    0.9998 </r>
       <r>    0.6516    0.9997 </r>
       <r>    0.7098    0.9996 </r>
       <r>    0.7131    0.9995 </r>
       <r>    0.7230    0.9995 </r>
       <r>    0.7550    0.9993 </r>
       <r>    0.8026    0.9989 </r>
       <r>    0.8237    0.9986 </r>
       <r>    0.8387    0.9984 </r>
       <r>    0.8425    0.9983 </r>
       <r>    0.8730    0.9977 </r>
       <r>    0.8767    0.9976 </r>
       <r>    0.8962    0.9971 </r>
       <r>    0.8968    0.9971 </r>
       <r>    0.9245    0.9962 </r>
       <r>    0.9486    0.9951 </r>
       <r>    0.9767    0.9936 </r>
       <r>    0.9843    0.9931 </r>
       <r>    0.9904    0.9926 </r>
       <r>    1.0188    0.9902 </r>
       <r>    1.0597    0.9853 </r>
       <r>    1.0679    0.9841 </r>
       <r>    1.0877    0.9807 </r>
       <r>    1.1023    0.9777 </r>
       <r>    1.1514    0.9641 </r>
       <r>    1.1630    0.9599 </r>
       <r>    1.1839    0.9510 </r>
       <r>    1.2026    0.9415 </r>
       <r>    1.2076    0.9387 </r>
       <r>    1.2284    0.9256 </r>
       <r>    1.2595    0.9011 </r>
       <r>    1.2663    0.8949 </r>
       <r>    1.2792    0.8822 </r>
       <r>    1.2850    0.8760 </r>
       <r>    1.3041    0.8538 </r>
       <r>    1.3158    0.8386 </r>
       <r>    1.4230    0.6401 </r>
       <r>    1.5110    0.4245 </r>
       <r>    1.5334    0.3709 </r>
       <r>    1.5374    0.3615 </r>
       <r>    1.5659    0.2986 </r>
       <r>    1.5768    0.2764 </r>
       <r>    1.6069    0.2203 </r>
       <r>    1.8050    0.0375 </r>
       <r>    2.0401    0.0037 </r>
       <r>    2.1726    0.0010 </r>
       <r>    2.2931    0.0003 </r>
       <r>    2.4529    0.0001 </r>
       <r>    2.4998    0.0000 </r>
       <r>    2.5896    0.0000 </r>
       <r>    3.7248    0.0000 </r>
       <r>    3.8016    0.0000 </r>
       <r>    4.4458    0.0000 </r>
       <r>    4.6977    0.0000 </r>
       <r>    4.7292    0.0000 </r>
       <r>    4.9061    0.0000 </r>
       <r>    5.5386    0.0000 </r>
       <r>    5.6272    0.0000 </r>
       <r>    5.8139    0.0000 </r>
       <r>    5.8158    0.0000 </r>
       <r>    6.2086    0.0000 </r>
       <r>    6.2966    0.0000 </r>
       <r>    6.3017    0.0000 </r>
       <r>    6.6628    0.0000 </r>
       <r>    6.7261    0.0000 </r>
       <r>    6.7476    0.0000 </r>
       <r>    7.0353    0.0000 </r>
      </set>
      <set comment="kpoint 2">
       <r>  -12.7278    1.0000 </r>
       <r>   -8.7125    1.0000 </r>
       <r>   -7.7589    1.0000 </r>
       <r>   -6.4555    1.0000 </r>
       <r>   -5.4738    1.0000 </r>
       <r>   -5.4073    1.0000 </r>
       <r>   -5.3677    1.0000 </r>
       <r>   -5.3527    1.0000 </r>
       <r>   -5.3314    1.0000 </r>
       <r>   -5.2582    1.0000 </r>
       <r>   -5.1953    1.0000 </r>
       <r>   -5.1830    1.0000 </r>
       <r>   -5.1484    1.0000 </r>
       <r>   -4.7674    1.0000 </r>
       <r>   -4.7227    1.0000 </r>
       <r>   -4.7137    1.0000 </r>
       <r>   -4.6829    1.0000 </r>
       <r>   -4.6738    1.0000 </r>
       <r>   -4.6709    1.0000 </r>
       <r>   -4.5411    1.0000 </r>
       <r>   -4.2235    1.0000 </r>
       <r>   -4.2045    1.0000 </r>
       <r>   -4.1955    1.0000 </r>
       <r>   -4.1733    1.0000 </r>
       <r>   -4.1568    1.0000 </r>
       <r>   -4.1061    1.0000 </r>
       <r>   -4.0767    1.0000 </r>
       <r>   -4.0109    1.0000 </r>
       <r>   -3.9976    1.0000 </r>
       <r>   -3.9002    1.0000 </r>
       <r>   -3.8869    1.0000 </r>
       <r>   -3.8488    1.0000 </r>
       <r>   -3.8219    1.0000 </r>
       <r>   -3.8010    1.0000 </r>
       <r>   -3.7889    1.0000 </r>
       <r>   -3.7600    1.0000 </r>
       <r>   -3.7365    1.0000 </r>
       <r>   -3.7332    1.0000 </r>
       <r>   -3.7159    1.0000 </r>
       <r>   -3.6629    1.0000 </r>
       <r>   -3.6319    1.0000 </r>
       <r>   -3.6137    1.0000 </r>
       <r>   -3.5646    1.0000 </r>
       <r>   -3.5496    1.0000 </r>
       <r>   -3.2463    1.0000 </r>
       <r>   -3.1906    1.0000 </r>
       <r>   -3.1221    1.0000 </r>
       <r>   -3.1134    1.0000 </r>
       <r>   -3.0888    1.0000 </r>
       <r>   -3.0714    1.0000 </r>
       <r>   -3.0390    1.0000 </r>
       <r>   -3.0199    1.0000 </r>
       <r>   -2.9645    1.0000 </r>
       <r>   -2.9210    1.0000 </r>
       <r>   -2.9059    1.0000 </r>
       <r>   -2.8458    1.0000 </r>
       <r>   -2.8140    1.0000 </r>
       <r>   -2.8029    1.0000 </r>
       <r>   -2.7694    1.0000 </r>
       <r>   -2.6932    1.0000 </r>
       <r>   -2.3002    1.0000 </r>
       <r>   -2.2702    1.0000 </r>
       <r>   -2.2383    1.0000 </r>
       <r>   -2.2278    1.0000 </r>
       <r>   -2.1969    1.0000 </r>
       <r>   -2.1771    1.0000 </r>
       <r>   -2.1500    1.0000 </r>
       <r>   -2.1413    1.0000 </r>
       <r>   -2.1337    1.0000 </r>
       <r>   -2.1179    1.0000 </r>
       <r>   -2.0828    1.0000 </r>
       <r>   -2.0799    1.0000 </r>
       <r>   -2.0266    1.0000 </r>
       <r>   -2.0110    1.0000 </r>
       <r>   -2.0094    1.0000 </r>
       <r>   -1.9964    1.0000 </r>
       <r>   -1.9678    1.0000 </r>
       <r>   -1.9131    1.0000 </r>
       <r>   -1.8970    1.0000 </r>
       <r>   -1.8860    1.0000 </r>
       <r>   -1.8657    1.0000 </r>
       <r>   -1.8292    1.0000 </r>
       <r>   -1.8159    1.0000 </r>
       <r>   -1.7743    1.0000 </r>
       <r>   -1.7607    1.0000 </r>
       <r>   -1.7356    1.0000 </r>
       <r>   -1.7090    1.0000 </r>
       <r>   -1.6514    1.0000 </r>
       <r>   -1.6086    1.0000 </r>
       <r>   -1.5870    1.0000 </r>
       <r>   -1.5754    1.0000 </r>
       <r>   -1.5396    1.0000 </r>
       <r>   -1.5177    1.0000 </r>
       <r>   -1.5009    1.0000 </r>
       <r>   -1.4823    1.0000 </r>
       <r>   -1.4749    1.0000 </r>
       <r>   -1.4617    1.0000 </r>
       <r>   -1.4501    1.0000 </r>
       <r>   -1.4034    1.0000 </r>
       <r>   -1.3817    1.0000 </r>
       <r>   -1.3664    1.0000 </r>
       <r>   -1.3623    1.0000 </r>
       <r>   -1.2957    1.0000 </r>
       <r>   -1.2372    1.0000 </r>
       <r>   -1.2108    1.0000 </r>
       <r>   -1.2035    1.0000 </r>
       <r>   -1.2024    1.0000 </r>
       <r>   -1.1756    1.0000 </r>
       <r>   -1.1538    1.0000 </r>
       <r>   -1.1278    1.0000 </r>
       <r>   -1.0802    1.0000 </r>
       <r>   -1.0351    1.0000 </r>
       <r>   -0.9600    1.0000 </r>
       <r>   -0.8643    1.0000 </r>
       <r>   -0.8132    1.0000 </r>
       <r>   -0.7772    1.0000 </r>
       <r>   -0.7398    1.0000 </r>
       <r>   -0.6725    1.0000 </r>
       <r>   -0.6655    1.0000 </r>
       <r>   -0.6467    1.0000 </r>
       <r>   -0.6000    1.0000 </r>
       <r>   -0.5803    1.0000 </r>
       <r>   -0.5621    1.0000 </r>
       <r>   -0.5497    1.0000 </r>
       <r>   -0.5171    1.0000 </r>
       <r>   -0.4500    1.0000 </r>
       <r>   -0.4388    1.0000 </r>
       <r>   -0.4005    1.0000 </r>
       <r>   -0.3357    1.0000 </r>
       <r>   -0.3024    1.0000 </r>
       <r>   -0.1755    1.0000 </r>
       <r>   -0.1426    1.0000 </r>
       <r>   -0.1071    1.0000 </r>
       <r>   -0.0739    1.0000 </r>
       <r>   -0.0575    1.0000 </r>
       <r>   -0.0373    1.0000 </r>
       <r>   -0.0239    1.0000 </r>
       <r>   -0.0203    1.0000 </r>
       <r>   -0.0112    1.0000 </r>
       <r>    0.0095    1.0000 </r>
       <r>    0.0870    1.0000 </r>
       <r>    0.0953    1.0000 </r>
       <r>    0.1522    1.0000 </r>
       <r>    0.1777    1.0000 </r>
       <r>    0.2289    1.0000 </r>
       <r>    0.2459    1.0000 </r>
       <r>    0.2944    1.0000 </r>
       <r>    0.3053    1.0000 </r>
       <r>    0.3234    1.0000 </r>
       <r>    0.3544    1.0000 </r>
       <r>    0.3823    1.0000 </r>
       <r>    0.4221    1.0000 </r>
       <r>    0.5188    0.9999 </r>
       <r>    0.5478    0.9999 </r>
       <r>    0.5617    0.9999 </r>
       <r>    0.5982    0.9999 </r>
       <r>    0.6010    0.9998 </r>
       <r>    0.6106    0.9998 </r>
       <r>    0.6301    0.9998 </r>
       <r>    0.6754    0.9997 </r>
       <r>    0.6933    0.9996 </r>
       <r>    0.7210    0.9995 </r>
       <r>    0.7355    0.9994 </r>
       <r>    0.7521    0.9993 </r>
       <r>    0.7835    0.9991 </r>
       <r>    0.8130    0.9987 </r>
       <r>    0.8502    0.9982 </r>
       <r>    0.8574    0.9980 </r>
       <r>    0.8733    0.9977 </r>
       <r>    0.8823    0.9975 </r>
       <r>    0.8988    0.9970 </r>
       <r>    0.9158    0.9965 </r>
       <r>    0.9185    0.9964 </r>
       <r>    0.9413    0.9955 </r>
       <r>    0.9723    0.9938 </r>
       <r>    0.9769    0.9935 </r>
       <r>    0.9903    0.9926 </r>
       <r>    1.0163    0.9905 </r>
       <r>    1.0428    0.9876 </r>
       <r>    1.0769    0.9826 </r>
       <r>    1.0983    0.9786 </r>
       <r>    1.1143    0.9750 </r>
       <r>    1.1416    0.9674 </r>
       <r>    1.1658    0.9588 </r>
       <r>    1.1789    0.9533 </r>
       <r>    1.1945    0.9458 </r>
       <r>    1.1994    0.9433 </r>
       <r>    1.2303    0.9243 </r>
       <r>    1.2606    0.9001 </r>
       <r>    1.2659    0.8953 </r>
       <r>    1.2825    0.8787 </r>
       <r>    1.2851    0.8759 </r>
       <r>    1.3051    0.8525 </r>
       <r>    1.3174    0.8363 </r>
       <r>    1.4328    0.6172 </r>
       <r>    1.5079    0.4321 </r>
       <r>    1.5182    0.4070 </r>
       <r>    1.5597    0.3118 </r>
       <r>    1.5624    0.3060 </r>
       <r>    1.5695    0.2912 </r>
       <r>    1.6056    0.2226 </r>
       <r>    1.8110    0.0354 </r>
       <r>    2.0001    0.0055 </r>
       <r>    2.2331    0.0005 </r>
       <r>    2.2806    0.0003 </r>
       <r>    2.4202    0.0001 </r>
       <r>    2.5167    0.0000 </r>
       <r>    2.5977    0.0000 </r>
       <r>    3.6462    0.0000 </r>
       <r>    3.8873    0.0000 </r>
       <r>    4.4684    0.0000 </r>
       <r>    4.5877    0.0000 </r>
       <r>    4.7660    0.0000 </r>
       <r>    4.9648    0.0000 </r>
       <r>    5.4594    0.0000 </r>
       <r>    5.6799    0.0000 </r>
       <r>    5.7965    0.0000 </r>
       <r>    5.8365    0.0000 </r>
       <r>    6.2126    0.0000 </r>
       <r>    6.2786    0.0000 </r>
       <r>    6.3238    0.0000 </r>
       <r>    6.6377    0.0000 </r>
       <r>    6.6961    0.0000 </r>
       <r>    6.7395    0.0000 </r>
       <r>    6.8347    0.0000 </r>
      </set>
      <set comment="kpoint 3">
       <r>  -12.7278    1.0000 </r>
       <r>   -8.7125    1.0000 </r>
       <r>   -7.7589    1.0000 </r>
       <r>   -6.4555    1.0000 </r>
       <r>   -5.4779    1.0000 </r>
       <r>   -5.4072    1.0000 </r>
       <r>   -5.3677    1.0000 </r>
       <r>   -5.3506    1.0000 </r>
       <r>   -5.3293    1.0000 </r>
       <r>   -5.2583    1.0000 </r>
       <r>   -5.1919    1.0000 </r>
       <r>   -5.1818    1.0000 </r>
       <r>   -5.1531    1.0000 </r>
       <r>   -4.7672    1.0000 </r>
       <r>   -4.7208    1.0000 </r>
       <r>   -4.7131    1.0000 </r>
       <r>   -4.6837    1.0000 </r>
       <r>   -4.6754    1.0000 </r>
       <r>   -4.6718    1.0000 </r>
       <r>   -4.5412    1.0000 </r>
       <r>   -4.2235    1.0000 </r>
       <r>   -4.2041    1.0000 </r>
       <r>   -4.1945    1.0000 </r>
       <r>   -4.1739    1.0000 </r>
       <r>   -4.1569    1.0000 </r>
       <r>   -4.1060    1.0000 </r>
       <r>   -4.0765    1.0000 </r>
       <r>   -4.0109    1.0000 </r>
       <r>   -3.9980    1.0000 </r>
       <r>   -3.9006    1.0000 </r>
       <r>   -3.8870    1.0000 </r>
       <r>   -3.8500    1.0000 </r>
       <r>   -3.8242    1.0000 </r>
       <r>   -3.8018    1.0000 </r>
       <r>   -3.7920    1.0000 </r>
       <r>   -3.7573    1.0000 </r>
       <r>   -3.7340    1.0000 </r>
       <r>   -3.7307    1.0000 </r>
       <r>   -3.7138    1.0000 </r>
       <r>   -3.6615    1.0000 </r>
       <r>   -3.6320    1.0000 </r>
       <r>   -3.6143    1.0000 </r>
       <r>   -3.5664    1.0000 </r>
       <r>   -3.5504    1.0000 </r>
       <r>   -3.2462    1.0000 </r>
       <r>   -3.1909    1.0000 </r>
       <r>   -3.1231    1.0000 </r>
       <r>   -3.1139    1.0000 </r>
       <r>   -3.0881    1.0000 </r>
       <r>   -3.0700    1.0000 </r>
       <r>   -3.0384    1.0000 </r>
       <r>   -3.0201    1.0000 </r>
       <r>   -2.9634    1.0000 </r>
       <r>   -2.9210    1.0000 </r>
       <r>   -2.9060    1.0000 </r>
       <r>   -2.8461    1.0000 </r>
       <r>   -2.8147    1.0000 </r>
       <r>   -2.8031    1.0000 </r>
       <r>   -2.7690    1.0000 </r>
       <r>   -2.6935    1.0000 </r>
       <r>   -2.2999    1.0000 </r>
       <r>   -2.2675    1.0000 </r>
       <r>   -2.2361    1.0000 </r>
       <r>   -2.2252    1.0000 </r>
       <r>   -2.1969    1.0000 </r>
       <r>   -2.1776    1.0000 </r>
       <r>   -2.1506    1.0000 </r>
       <r>   -2.1438    1.0000 </r>
       <r>   -2.1332    1.0000 </r>
       <r>   -2.1186    1.0000 </r>
       <r>   -2.0862    1.0000 </r>
       <r>   -2.0788    1.0000 </r>
       <r>   -2.0256    1.0000 </r>
       <r>   -2.0100    1.0000 </r>
       <r>   -2.0064    1.0000 </r>
       <r>   -1.9984    1.0000 </r>
       <r>   -1.9678    1.0000 </r>
       <r>   -1.9125    1.0000 </r>
       <r>   -1.8939    1.0000 </r>
       <r>   -1.8869    1.0000 </r>
       <r>   -1.8642    1.0000 </r>
       <r>   -1.8323    1.0000 </r>
       <r>   -1.8246    1.0000 </r>
       <r>   -1.7789    1.0000 </r>
       <r>   -1.7631    1.0000 </r>
       <r>   -1.7287    1.0000 </r>
       <r>   -1.7060    1.0000 </r>
       <r>   -1.6486    1.0000 </r>
       <r>   -1.6132    1.0000 </r>
       <r>   -1.5835    1.0000 </r>
       <r>   -1.5713    1.0000 </r>
       <r>   -1.5378    1.0000 </r>
       <r>   -1.5207    1.0000 </r>
       <r>   -1.5020    1.0000 </r>
       <r>   -1.4818    1.0000 </r>
       <r>   -1.4761    1.0000 </r>
       <r>   -1.4646    1.0000 </r>
       <r>   -1.4519    1.0000 </r>
       <r>   -1.4043    1.0000 </r>
       <r>   -1.3806    1.0000 </r>
       <r>   -1.3670    1.0000 </r>
       <r>   -1.3621    1.0000 </r>
       <r>   -1.2919    1.0000 </r>
       <r>   -1.2387    1.0000 </r>
       <r>   -1.2088    1.0000 </r>
       <r>   -1.2034    1.0000 </r>
       <r>   -1.2022    1.0000 </r>
       <r>   -1.1772    1.0000 </r>
       <r>   -1.1541    1.0000 </r>
       <r>   -1.1311    1.0000 </r>
       <r>   -1.0819    1.0000 </r>
       <r>   -1.0309    1.0000 </r>
       <r>   -0.9605    1.0000 </r>
       <r>   -0.8638    1.0000 </r>
       <r>   -0.8125    1.0000 </r>
       <r>   -0.7759    1.0000 </r>
       <r>   -0.7378    1.0000 </r>
       <r>   -0.6736    1.0000 </r>
       <r>   -0.6632    1.0000 </r>
       <r>   -0.6482    1.0000 </r>
       <r>   -0.6002    1.0000 </r>
       <r>   -0.5799    1.0000 </r>
       <r>   -0.5644    1.0000 </r>
       <r>   -0.5506    1.0000 </r>
       <r>   -0.5174    1.0000 </r>
       <r>   -0.4520    1.0000 </r>
       <r>   -0.4381    1.0000 </r>
       <r>   -0.4014    1.0000 </r>
       <r>   -0.3366    1.0000 </r>
       <r>   -0.3026    1.0000 </r>
       <r>   -0.1748    1.0000 </r>
       <r>   -0.1413    1.0000 </r>
       <r>   -0.1098    1.0000 </r>
       <r>   -0.0731    1.0000 </r>
       <r>   -0.0565    1.0000 </r>
       <r>   -0.0383    1.0000 </r>
       <r>   -0.0281    1.0000 </r>
       <r>   -0.0168    1.0000 </r>
       <r>   -0.0107    1.0000 </r>
       <r>    0.0090    1.0000 </r>
       <r>    0.0847    1.0000 </r>
       <r>    0.0941    1.0000 </r>
       <r>    0.1501    1.0000 </r>
       <r>    0.1767    1.0000 </r>
       <r>    0.2303    1.0000 </r>
       <r>    0.2445    1.0000 </r>
       <r>    0.2929    1.0000 </r>
       <r>    0.3030    1.0000 </r>
       <r>    0.3297    1.0000 </r>
       <r>    0.3551    1.0000 </r>
       <r>    0.3828    1.0000 </r>
       <r>    0.4236    1.0000 </r>
       <r>    0.5201    0.9999 </r>
       <r>    0.5474    0.9999 </r>
       <r>    0.5625    0.9999 </r>
       <r>    0.5988    0.9999 </r>
       <r>    0.6004    0.9998 </r>
       <r>    0.6111    0.9998 </r>
       <r>    0.6293    0.9998 </r>
       <r>    0.6746    0.9997 </r>
       <r>    0.6940    0.9996 </r>
       <r>    0.7204    0.9995 </r>
       <r>    0.7356    0.9994 </r>
       <r>    0.7510    0.9993 </r>
       <r>    0.7846    0.9991 </r>
       <r>    0.8139    0.9987 </r>
       <r>    0.8486    0.9982 </r>
       <r>    0.8573    0.9980 </r>
       <r>    0.8730    0.9977 </r>
       <r>    0.8822    0.9975 </r>
       <r>    0.8998    0.9970 </r>
       <r>    0.9172    0.9964 </r>
       <r>    0.9198    0.9963 </r>
       <r>    0.9430    0.9954 </r>
       <r>    0.9720    0.9939 </r>
       <r>    0.9757    0.9936 </r>
       <r>    0.9920    0.9925 </r>
       <r>    1.0148    0.9906 </r>
       <r>    1.0426    0.9876 </r>
       <r>    1.0773    0.9826 </r>
       <r>    1.0987    0.9785 </r>
       <r>    1.1152    0.9747 </r>
       <r>    1.1436    0.9667 </r>
       <r>    1.1654    0.9590 </r>
       <r>    1.1790    0.9532 </r>
       <r>    1.1928    0.9467 </r>
       <r>    1.1975    0.9443 </r>
       <r>    1.2300    0.9245 </r>
       <r>    1.2579    0.9026 </r>
       <r>    1.2650    0.8961 </r>
       <r>    1.2795    0.8819 </r>
       <r>    1.2850    0.8760 </r>
       <r>    1.3059    0.8514 </r>
       <r>    1.3153    0.8392 </r>
       <r>    1.4408    0.5979 </r>
       <r>    1.5046    0.4401 </r>
       <r>    1.5201    0.4023 </r>
       <r>    1.5583    0.3149 </r>
       <r>    1.5635    0.3036 </r>
       <r>    1.5720    0.2861 </r>
       <r>    1.6076    0.2191 </r>
       <r>    1.8104    0.0356 </r>
       <r>    1.9989    0.0056 </r>
       <r>    2.2346    0.0005 </r>
       <r>    2.2826    0.0003 </r>
       <r>    2.4209    0.0001 </r>
       <r>    2.5139    0.0000 </r>
       <r>    2.5963    0.0000 </r>
       <r>    3.6461    0.0000 </r>
       <r>    3.8866    0.0000 </r>
       <r>    4.4666    0.0000 </r>
       <r>    4.5927    0.0000 </r>
       <r>    4.7661    0.0000 </r>
       <r>    4.9631    0.0000 </r>
       <r>    5.4596    0.0000 </r>
       <r>    5.6791    0.0000 </r>
       <r>    5.7951    0.0000 </r>
       <r>    5.8358    0.0000 </r>
       <r>    6.2132    0.0000 </r>
       <r>    6.2823    0.0000 </r>
       <r>    6.3270    0.0000 </r>
       <r>    6.6371    0.0000 </r>
       <r>    6.7187    0.0000 </r>
       <r>    6.7592    0.0000 </r>
       <r>    6.9727    0.0000 </r>
      </set>
      <set comment="kpoint 4">
       <r>  -12.7276    1.0000 </r>
       <r>   -8.7132    1.0000 </r>
       <r>   -7.6023    1.0000 </r>
       <r>   -6.3031    1.0000 </r>
       <r>   -5.8355    1.0000 </r>
       <r>   -5.6469    1.0000 </r>
       <r>   -5.4049    1.0000 </r>
       <r>   -5.2096    1.0000 </r>
       <r>   -5.1951    1.0000 </r>
       <r>   -5.1131    1.0000 </r>
       <r>   -5.0554    1.0000 </r>
       <r>   -5.0339    1.0000 </r>
       <r>   -5.0108    1.0000 </r>
       <r>   -4.8538    1.0000 </r>
       <r>   -4.7952    1.0000 </r>
       <r>   -4.7518    1.0000 </r>
       <r>   -4.6818    1.0000 </r>
       <r>   -4.5572    1.0000 </r>
       <r>   -4.5455    1.0000 </r>
       <r>   -4.5153    1.0000 </r>
       <r>   -4.2783    1.0000 </r>
       <r>   -4.2203    1.0000 </r>
       <r>   -4.1484    1.0000 </r>
       <r>   -4.1297    1.0000 </r>
       <r>   -4.0932    1.0000 </r>
       <r>   -4.0859    1.0000 </r>
       <r>   -4.0486    1.0000 </r>
       <r>   -4.0257    1.0000 </r>
       <r>   -4.0025    1.0000 </r>
       <r>   -3.9522    1.0000 </r>
       <r>   -3.9429    1.0000 </r>
       <r>   -3.9185    1.0000 </r>
       <r>   -3.8958    1.0000 </r>
       <r>   -3.8539    1.0000 </r>
       <r>   -3.8165    1.0000 </r>
       <r>   -3.7820    1.0000 </r>
       <r>   -3.7691    1.0000 </r>
       <r>   -3.7092    1.0000 </r>
       <r>   -3.5912    1.0000 </r>
       <r>   -3.5466    1.0000 </r>
       <r>   -3.5097    1.0000 </r>
       <r>   -3.4888    1.0000 </r>
       <r>   -3.4617    1.0000 </r>
       <r>   -3.4361    1.0000 </r>
       <r>   -3.2924    1.0000 </r>
       <r>   -3.2630    1.0000 </r>
       <r>   -3.2093    1.0000 </r>
       <r>   -3.1588    1.0000 </r>
       <r>   -3.1438    1.0000 </r>
       <r>   -3.1061    1.0000 </r>
       <r>   -3.0717    1.0000 </r>
       <r>   -3.0047    1.0000 </r>
       <r>   -2.9663    1.0000 </r>
       <r>   -2.9046    1.0000 </r>
       <r>   -2.8438    1.0000 </r>
       <r>   -2.8147    1.0000 </r>
       <r>   -2.8016    1.0000 </r>
       <r>   -2.7879    1.0000 </r>
       <r>   -2.7581    1.0000 </r>
       <r>   -2.7031    1.0000 </r>
       <r>   -2.5588    1.0000 </r>
       <r>   -2.5186    1.0000 </r>
       <r>   -2.3712    1.0000 </r>
       <r>   -2.3298    1.0000 </r>
       <r>   -2.3213    1.0000 </r>
       <r>   -2.2915    1.0000 </r>
       <r>   -2.2629    1.0000 </r>
       <r>   -2.2197    1.0000 </r>
       <r>   -2.2107    1.0000 </r>
       <r>   -2.1905    1.0000 </r>
       <r>   -2.1796    1.0000 </r>
       <r>   -2.1188    1.0000 </r>
       <r>   -2.0934    1.0000 </r>
       <r>   -2.0723    1.0000 </r>
       <r>   -2.0512    1.0000 </r>
       <r>   -2.0363    1.0000 </r>
       <r>   -2.0081    1.0000 </r>
       <r>   -1.9714    1.0000 </r>
       <r>   -1.9662    1.0000 </r>
       <r>   -1.8552    1.0000 </r>
       <r>   -1.8487    1.0000 </r>
       <r>   -1.7944    1.0000 </r>
       <r>   -1.7797    1.0000 </r>
       <r>   -1.7494    1.0000 </r>
       <r>   -1.7320    1.0000 </r>
       <r>   -1.7231    1.0000 </r>
       <r>   -1.6993    1.0000 </r>
       <r>   -1.6854    1.0000 </r>
       <r>   -1.6425    1.0000 </r>
       <r>   -1.6191    1.0000 </r>
       <r>   -1.6003    1.0000 </r>
       <r>   -1.5467    1.0000 </r>
       <r>   -1.5355    1.0000 </r>
       <r>   -1.5221    1.0000 </r>
       <r>   -1.5116    1.0000 </r>
       <r>   -1.4876    1.0000 </r>
       <r>   -1.4801    1.0000 </r>
       <r>   -1.4646    1.0000 </r>
       <r>   -1.4381    1.0000 </r>
       <r>   -1.4195    1.0000 </r>
       <r>   -1.3876    1.0000 </r>
       <r>   -1.3703    1.0000 </r>
       <r>   -1.3317    1.0000 </r>
       <r>   -1.3116    1.0000 </r>
       <r>   -1.2753    1.0000 </r>
       <r>   -1.2462    1.0000 </r>
       <r>   -1.2409    1.0000 </r>
       <r>   -1.2210    1.0000 </r>
       <r>   -1.1597    1.0000 </r>
       <r>   -1.1371    1.0000 </r>
       <r>   -1.1270    1.0000 </r>
       <r>   -1.0683    1.0000 </r>
       <r>   -1.0577    1.0000 </r>
       <r>   -1.0168    1.0000 </r>
       <r>   -0.9778    1.0000 </r>
       <r>   -0.9348    1.0000 </r>
       <r>   -0.9037    1.0000 </r>
       <r>   -0.8755    1.0000 </r>
       <r>   -0.8467    1.0000 </r>
       <r>   -0.7242    1.0000 </r>
       <r>   -0.6813    1.0000 </r>
       <r>   -0.6335    1.0000 </r>
       <r>   -0.6119    1.0000 </r>
       <r>   -0.5743    1.0000 </r>
       <r>   -0.5574    1.0000 </r>
       <r>   -0.5327    1.0000 </r>
       <r>   -0.5064    1.0000 </r>
       <r>   -0.4604    1.0000 </r>
       <r>   -0.3987    1.0000 </r>
       <r>   -0.3589    1.0000 </r>
       <r>   -0.3173    1.0000 </r>
       <r>   -0.2537    1.0000 </r>
       <r>   -0.1949    1.0000 </r>
       <r>   -0.1494    1.0000 </r>
       <r>   -0.1230    1.0000 </r>
       <r>   -0.1005    1.0000 </r>
       <r>   -0.0613    1.0000 </r>
       <r>   -0.0302    1.0000 </r>
       <r>   -0.0217    1.0000 </r>
       <r>   -0.0020    1.0000 </r>
       <r>    0.0508    1.0000 </r>
       <r>    0.0726    1.0000 </r>
       <r>    0.1581    1.0000 </r>
       <r>    0.2004    1.0000 </r>
       <r>    0.2103    1.0000 </r>
       <r>    0.2326    1.0000 </r>
       <r>    0.2622    1.0000 </r>
       <r>    0.3011    1.0000 </r>
       <r>    0.3129    1.0000 </r>
       <r>    0.3256    1.0000 </r>
       <r>    0.3402    1.0000 </r>
       <r>    0.3646    1.0000 </r>
       <r>    0.3921    1.0000 </r>
       <r>    0.4336    1.0000 </r>
       <r>    0.4469    1.0000 </r>
       <r>    0.4771    1.0000 </r>
       <r>    0.4948    0.9999 </r>
       <r>    0.5473    0.9999 </r>
       <r>    0.5690    0.9999 </r>
       <r>    0.5914    0.9999 </r>
       <r>    0.6308    0.9998 </r>
       <r>    0.6975    0.9996 </r>
       <r>    0.7417    0.9994 </r>
       <r>    0.7569    0.9993 </r>
       <r>    0.8036    0.9989 </r>
       <r>    0.8676    0.9978 </r>
       <r>    0.8916    0.9972 </r>
       <r>    0.9089    0.9967 </r>
       <r>    0.9388    0.9956 </r>
       <r>    0.9534    0.9949 </r>
       <r>    0.9949    0.9923 </r>
       <r>    1.0197    0.9901 </r>
       <r>    1.0666    0.9843 </r>
       <r>    1.1008    0.9781 </r>
       <r>    1.1154    0.9747 </r>
       <r>    1.1480    0.9653 </r>
       <r>    1.1765    0.9543 </r>
       <r>    1.2010    0.9424 </r>
       <r>    1.2239    0.9286 </r>
       <r>    1.2461    0.9125 </r>
       <r>    1.2675    0.8938 </r>
       <r>    1.2941    0.8658 </r>
       <r>    1.3036    0.8544 </r>
       <r>    1.3426    0.7989 </r>
       <r>    1.3719    0.7476 </r>
       <r>    1.3824    0.7274 </r>
       <r>    1.4056    0.6790 </r>
       <r>    1.4351    0.6116 </r>
       <r>    1.4481    0.5805 </r>
       <r>    1.4836    0.4923 </r>
       <r>    1.5020    0.4466 </r>
       <r>    1.5245    0.3917 </r>
       <r>    1.5501    0.3328 </r>
       <r>    1.5871    0.2563 </r>
       <r>    1.6366    0.1735 </r>
       <r>    1.6579    0.1451 </r>
       <r>    1.7051    0.0957 </r>
       <r>    1.7095    0.0919 </r>
       <r>    1.7825    0.0466 </r>
       <r>    1.8107    0.0355 </r>
       <r>    1.9845    0.0064 </r>
       <r>    2.0029    0.0054 </r>
       <r>    2.0484    0.0034 </r>
       <r>    2.3868    0.0001 </r>
       <r>    2.5118    0.0000 </r>
       <r>    2.8453    0.0000 </r>
       <r>    3.0843    0.0000 </r>
       <r>    3.1214    0.0000 </r>
       <r>    3.5267    0.0000 </r>
       <r>    3.8830    0.0000 </r>
       <r>    4.3137    0.0000 </r>
[...]
     <dimension dim="2">spin</dimension>
     <field>energy</field>
     <field>total</field>
     <field>integrated</field>
     <set>
      <set comment="spin 1">
       <r>   -13.7278     0.0000     0.0000 </r>
       <r>   -13.6545     0.0000     0.0000 </r>
       <r>   -13.5812     0.0053     0.0004 </r>
       <r>   -13.5079     0.0058     0.0008 </r>
       <r>   -13.4346     0.0120     0.0017 </r>
       <r>   -13.3613     0.0250     0.0035 </r>
       <r>   -13.2880     0.0518     0.0073 </r>
       <r>   -13.2147     0.1072     0.0152 </r>
       <r>   -13.1414     0.2205     0.0313 </r>
       <r>   -13.0681     0.4476     0.0642 </r>
       <r>   -12.9948     0.8854     0.1291 </r>
       <r>   -12.9215     1.6648     0.2511 </r>
       <r>   -12.8482     2.8519     0.4601 </r>
       <r>   -12.7749     4.1851     0.7669 </r>
       <r>   -12.7016     4.9308     1.1284 </r>
       <r>   -12.6283     4.5057     1.4586 </r>
       <r>   -12.5550     3.2563     1.6973 </r>
       <r>   -12.4817     1.9759     1.8422 </r>
       <r>   -12.4084     1.0744     1.9209 </r>
       <r>   -12.3351     0.5495     1.9612 </r>
       <r>   -12.2618     0.2723     1.9812 </r>
       <r>   -12.1885     0.1328     1.9909 </r>
       <r>   -12.1152     0.0643     1.9956 </r>
       <r>   -12.0419     0.0310     1.9979 </r>
       <r>   -11.9686     0.0149     1.9990 </r>
       <r>   -11.8953     0.0000     2.0000 </r>
       <r>   -11.8220     0.0000     2.0000 </r>
       <r>   -11.7486     0.0000     2.0000 </r>
       <r>   -11.6753     0.0000     2.0000 </r>
       <r>   -11.6020     0.0000     2.0000 </r>
       <r>   -11.5287     0.0000     2.0000 </r>
       <r>   -11.4554     0.0000     2.0000 </r>
       <r>   -11.3821     0.0000     2.0000 </r>
       <r>   -11.3088     0.0000     2.0000 </r>
       <r>   -11.2355     0.0000     2.0000 </r>
       <r>   -11.1622     0.0000     2.0000 </r>
       <r>   -11.0889     0.0000     2.0000 </r>
       <r>   -11.0156     0.0000     2.0000 </r>
       <r>   -10.9423     0.0000     2.0000 </r>
       <r>   -10.8690     0.0000     2.0000 </r>
       <r>   -10.7957     0.0000     2.0000 </r>
       <r>   -10.7224     0.0000     2.0000 </r>
       <r>   -10.6491     0.0000     2.0000 </r>
       <r>   -10.5758     0.0000     2.0000 </r>
       <r>   -10.5025     0.0000     2.0000 </r>
       <r>   -10.4292     0.0000     2.0000 </r>
       <r>   -10.3559     0.0000     2.0000 </r>
       <r>   -10.2826     0.0000     2.0000 </r>
       <r>   -10.2093     0.0000     2.0000 </r>
       <r>   -10.1360     0.0000     2.0000 </r>
       <r>   -10.0627     0.0000     2.0000 </r>
       <r>    -9.9894     0.0000     2.0000 </r>
       <r>    -9.9161     0.0000     2.0000 </r>
       <r>    -9.8428     0.0000     2.0000 </r>
       <r>    -9.7695     0.0000     2.0000 </r>
       <r>    -9.6962     0.0000     2.0000 </r>
       <r>    -9.6229     0.0000     2.0000 </r>
       <r>    -9.5496     0.0064     2.0005 </r>
       <r>    -9.4763     0.0069     2.0010 </r>
       <r>    -9.4030     0.0144     2.0020 </r>
       <r>    -9.3297     0.0300     2.0042 </r>
       <r>    -9.2564     0.0621     2.0088 </r>
       <r>    -9.1831     0.1284     2.0182 </r>
       <r>    -9.1098     0.2634     2.0375 </r>
       <r>    -9.0365     0.5322     2.0765 </r>
       <r>    -8.9632     1.0425     2.1529 </r>
       <r>    -8.8898     1.9245     2.2940 </r>
       <r>    -8.8165     3.1921     2.5280 </r>
       <r>    -8.7432     4.4595     2.8549 </r>
       <r>    -8.6699     4.9380     3.2169 </r>
       <r>    -8.5966     4.2399     3.5277 </r>
       <r>    -8.5233     2.9157     3.7414 </r>
       <r>    -8.4500     1.7133     3.8670 </r>
       <r>    -8.3767     0.9168     3.9342 </r>
       <r>    -8.3034     0.4702     3.9686 </r>
       <r>    -8.2301     0.2436     3.9865 </r>
       <r>    -8.1568     0.1436     3.9970 </r>
       <r>    -8.0835     0.1206     4.0059 </r>
       <r>    -8.0102     0.1597     4.0176 </r>
       <r>    -7.9369     0.2711     4.0374 </r>
       <r>    -7.8636     0.4690     4.0727 </r>
       <r>    -7.7903     0.7702     4.1291 </r>
       <r>    -7.7170     1.1207     4.2113 </r>
       <r>    -7.6437     1.4444     4.3171 </r>
       <r>    -7.5704     1.6829     4.4405 </r>
       <r>    -7.4971     1.8192     4.5739 </r>
       <r>    -7.4238     1.8954     4.7128 </r>
       <r>    -7.3505     1.9703     4.8572 </r>
       <r>    -7.2772     2.0577     5.0081 </r>
       <r>    -7.2039     2.0988     5.1619 </r>
       <r>    -7.1306     2.0766     5.3141 </r>
       <r>    -7.0573     2.0493     5.4643 </r>
       <r>    -6.9840     2.0764     5.6166 </r>
       <r>    -6.9107     2.1746     5.7760 </r>
       <r>    -6.8374     2.3146     5.9457 </r>
       <r>    -6.7641     2.4164     6.1229 </r>
       <r>    -6.6908     2.4708     6.3041 </r>
       <r>    -6.6175     2.5547     6.4915 </r>
       <r>    -6.5442     2.7593     6.6937 </r>
       <r>    -6.4709     3.1281     6.9232 </r>
       <r>    -6.3976     3.6418     7.1902 </r>
       <r>    -6.3243     4.1613     7.4953 </r>
       <r>    -6.2510     4.5192     7.8266 </r>
       <r>    -6.1777     4.6612     8.1684 </r>
       <r>    -6.1043     4.7158     8.5141 </r>
       <r>    -6.0310     4.8106     8.8669 </r>
       <r>    -5.9577     4.9537     9.2300 </r>
       <r>    -5.8844     5.1716     9.6092 </r>
       <r>    -5.8111     5.5885    10.0189 </r>
       <r>    -5.7378     6.2629    10.4781 </r>
       <r>    -5.6645     7.1446    11.0018 </r>
       <r>    -5.5912     8.2796    11.6089 </r>
       <r>    -5.5179     9.8026    12.3276 </r>
       <r>    -5.4446    11.6362    13.1808 </r>
       <r>    -5.3713    13.3483    14.1594 </r>
       <r>    -5.2980    14.6825    15.2359 </r>
       <r>    -5.2247    16.0314    16.4111 </r>
       <r>    -5.1514    17.7764    17.7145 </r>
       <r>    -5.0781    19.8112    19.1667 </r>
       <r>    -5.0048    21.9638    20.7769 </r>
       <r>    -4.9315    24.2597    22.5556 </r>
       <r>    -4.8582    26.7390    24.5158 </r>
       <r>    -4.7849    29.2060    26.6569 </r>
       <r>    -4.7116    31.2554    28.9482 </r>
       <r>    -4.6383    32.5954    31.3379 </r>
       <r>    -4.5650    33.4426    33.7902 </r>
       <r>    -4.4917    34.4383    36.3150 </r>
       <r>    -4.4184    36.0986    38.9614 </r>
       <r>    -4.3451    38.6140    41.7928 </r>
       <r>    -4.2718    41.9223    44.8664 </r>
       <r>    -4.1985    45.6088    48.2106 </r>
       <r>    -4.1252    48.8958    51.7955 </r>
       <r>    -4.0519    50.9793    55.5336 </r>
       <r>    -3.9786    51.6548    59.3210 </r>
       <r>    -3.9053    51.3187    63.0842 </r>
       <r>    -3.8320    50.4340    66.7824 </r>
       <r>    -3.7587    48.9527    70.3718 </r>
       <r>    -3.6854    46.5040    73.7819 </r>
       <r>    -3.6121    43.2764    76.9553 </r>
       <r>    -3.5388    40.1335    79.8985 </r>
       <r>    -3.4655    38.0215    82.6870 </r>
       <r>    -3.3922    37.6732    85.4502 </r>
       <r>    -3.3188    39.3393    88.3362 </r>
       <r>    -3.2455    42.4233    91.4479 </r>
       <r>    -3.1722    45.6665    94.7973 </r>
       <r>    -3.0989    48.0301    98.3198 </r>
       <r>    -3.0256    49.3320   101.9377 </r>
       <r>    -2.9523    50.0871   105.6116 </r>
       <r>    -2.8790    50.7151   109.3308 </r>
       <r>    -2.8057    50.9396   113.0662 </r>
       <r>    -2.7324    50.1487   116.7437 </r>
       <r>    -2.6591    48.2231   120.2796 </r>
       <r>    -2.5858    45.9315   123.6476 </r>
       <r>    -2.5125    44.5210   126.9122 </r>
       <r>    -2.4392    45.0931   130.2196 </r>
       <r>    -2.3659    47.9914   133.7393 </r>
       <r>    -2.2926    52.4069   137.5829 </r>
       <r>    -2.2193    57.1140   141.7710 </r>
       <r>    -2.1460    61.3526   146.2704 </r>
       <r>    -2.0727    64.6918   151.0140 </r>
       <r>    -1.9994    66.8131   155.9139 </r>
       <r>    -1.9261    68.1579   160.9118 </r>
       <r>    -1.8528    69.7842   166.0290 </r>
       <r>    -1.7795    72.2402   171.3260 </r>
       <r>    -1.7062    74.8930   176.8171 </r>
       <r>    -1.6329    76.8277   182.4499 </r>
       <r>    -1.5596    77.9581   188.1663 </r>
       <r>    -1.4863    78.5282   193.9249 </r>
       <r>    -1.4130    78.3907   199.6731 </r>
       <r>    -1.3397    77.0627   205.3242 </r>
       <r>    -1.2664    73.9865   210.7504 </r>
       <r>    -1.1931    69.0327   215.8134 </r>
       <r>    -1.1198    62.9521   220.4302 </r>
       <r>    -1.0465    57.0172   224.6120 </r>
       <r>    -0.9732    52.3265   228.4499 </r>
       <r>    -0.8999    49.5399   232.0849 </r>
       <r>    -0.8266    48.9770   235.6775 </r>
       <r>    -0.7533    50.5871   239.3887 </r>
       <r>    -0.6800    53.9872   243.3492 </r>
       <r>    -0.6067    57.9829   247.6021 </r>
       <r>    -0.5334    60.5872   252.0464 </r>
       <r>    -0.4600    60.3787   256.4755 </r>
       <r>    -0.3867    57.8454   260.7183 </r>
       <r>    -0.3134    54.7580   264.7343 </r>
       <r>    -0.2401    52.5917   268.5914 </r>
       <r>    -0.1668    51.8652   272.3949 </r>
       <r>    -0.0935    52.3964   276.2373 </r>
       <r>    -0.0202    53.7211   280.1769 </r>
       <r>     0.0531    55.5138   284.2478 </r>
       <r>     0.1264    57.7347   288.4815 </r>
       <r>     0.1997    60.3199   292.9055 </r>
       <r>     0.2730    62.8245   297.5138 </r>
       <r>     0.3463    64.4754   302.2426 </r>
       <r>     0.4196    64.4726   306.9705 </r>
       <r>     0.4929    62.6121   311.5618 </r>
       <r>     0.5662    59.4917   315.9244 </r>
       <r>     0.6395    56.2206   320.0471 </r>
       <r>     0.7128    54.0111   324.0082 </r>
       <r>     0.7861    53.4978   327.9318 </r>
       <r>     0.8594    54.3036   331.9143 </r>
       <r>     0.9327    55.5334   335.9869 </r>
       <r>     1.0060    56.8845   340.1592 </r>
       <r>     1.0793    59.0685   344.4909 </r>
       <r>     1.1526    62.6794   349.0886 </r>
       <r>     1.2259    67.0911   354.0089 </r>
       <r>     1.2992    70.6889   359.1932 </r>
       <r>     1.3725    72.0459   364.4766 </r>
       <r>     1.4458    70.5489   369.6498 </r>
       <r>     1.5191    66.3120   374.5120 </r>
       <r>     1.5924    60.0956   378.9190 </r>
       <r>     1.6657    53.0610   382.8106 </r>
       <r>     1.7390    45.8375   386.1730 </r>
       <r>     1.8123    38.3751   388.9877 </r>
       <r>     1.8856    31.0692   391.2668 </r>
       <r>     1.9589    24.9268   393.0960 </r>
       <r>     2.0322    20.4918   394.6010 </r>
       <r>     2.1055    17.5507   395.8905 </r>
       <r>     2.1788    15.6027   397.0372 </r>
       <r>     2.2521    14.1956   398.0807 </r>
       <r>     2.3255    13.0782   399.0420 </r>
       <r>     2.3988    12.2398   399.9413 </r>
       <r>     2.4721    11.7103   400.8011 </r>
       <r>     2.5454    11.3582   401.6358 </r>
       <r>     2.6187    11.0648   402.4484 </r>
       <r>     2.6920    10.8638   403.2454 </r>
       <r>     2.7653    10.8955   404.0447 </r>
       <r>     2.8386    11.1659   404.8637 </r>
       <r>     2.9119    11.4876   405.7064 </r>
       <r>     2.9852    11.6855   406.5635 </r>
       <r>     3.0585    11.7915   407.4285 </r>
       <r>     3.1318    11.9741   408.3065 </r>
       <r>     3.2051    12.2448   409.2044 </r>
       <r>     3.2784    12.3900   410.1132 </r>
       <r>     3.3517    12.2543   411.0119 </r>
       <r>     3.4250    11.8896   411.8839 </r>
       <r>     3.4983    11.5023   412.7272 </r>
       <r>     3.5716    11.2723   413.5539 </r>
       <r>     3.6449    11.3228   414.3843 </r>
       <r>     3.7182    11.7154   415.2436 </r>
       <r>     3.7915    12.3660   416.1506 </r>
       <r>     3.8648    12.8911   417.0958 </r>
       <r>     3.9381    12.7770   418.0328 </r>
       <r>     4.0114    12.0219   418.9145 </r>
       <r>     4.0847    11.2295   419.7382 </r>
       <r>     4.1580    10.9503   420.5414 </r>
       <r>     4.2313    11.2502   421.3666 </r>
       <r>     4.3046    11.8196   422.2332 </r>
       <r>     4.3779    12.1973   423.1277 </r>
       <r>     4.4512    12.1279   424.0171 </r>
       <r>     4.5245    11.7867   424.8814 </r>
       <r>     4.5978    11.6185   425.7334 </r>
       <r>     4.6711    11.8470   426.6024 </r>
       <r>     4.7444    12.2320   427.4998 </r>
       <r>     4.8177    12.3671   428.4066 </r>
       <r>     4.8910    12.0610   429.2911 </r>
       <r>     4.9643    11.4093   430.1277 </r>
       <r>     5.0376    10.6332   430.9074 </r>
       <r>     5.1109     9.9591   431.6380 </r>
       <r>     5.1843     9.5256   432.3368 </r>
       <r>     5.2576     9.3764   433.0247 </r>
       <r>     5.3309     9.5354   433.7240 </r>
       <r>     5.4042    10.0251   434.4591 </r>
       <r>     5.4775    10.7688   435.2490 </r>
       <r>     5.5508    11.5931   436.0993 </r>
       <r>     5.6241    12.3066   437.0018 </r>
       <r>     5.6974    12.7302   437.9356 </r>
       <r>     5.7707    12.6932   438.8663 </r>
       <r>     5.8440    12.1132   439.7547 </r>
       <r>     5.9173    11.1482   440.5723 </r>
       <r>     5.9906    10.1327   441.3153 </r>
       <r>     6.0639     9.3357   441.9999 </r>
       <r>     6.1372     8.8713   442.6505 </r>
       <r>     6.2105     8.7868   443.2949 </r>
       <r>     6.2838     9.0455   443.9583 </r>
       <r>     6.3571     9.4201   444.6493 </r>
       <r>     6.4304     9.5951   445.3530 </r>
       <r>     6.5037     9.4130   446.0437 </r>
       <r>     6.5770     8.9875   446.7030 </r>
       <r>     6.6503     8.5099   447.3273 </r>
       <r>     6.7236     8.0386   447.9169 </r>
       <r>     6.7969     7.4147   448.4607 </r>
       <r>     6.8702     6.4403   448.9331 </r>
       <r>     6.9435     5.1181   449.3085 </r>
       <r>     7.0168     3.6784   449.5784 </r>
       <r>     7.0901     2.3999   449.7546 </r>
       <r>     7.1634     1.4482   449.8612 </r>
       <r>     7.2367     0.8369   449.9229 </r>
       <r>     7.3100     0.4769   449.9583 </r>
       <r>     7.3833     0.2680   449.9782 </r>
       <r>     7.4566     0.1444   449.9891 </r>
       <r>     7.5299     0.0732   449.9947 </r>
       <r>     7.6032     0.0343   449.9976 </r>
       <r>     7.6765     0.0151   449.9990 </r>
       <r>     7.7498     0.0060   449.9996 </r>
       <r>     7.8231     0.0024   449.9998 </r>
       <r>     7.8964     0.0010   449.9999 </r>
       <r>     7.9698     0.0005   450.0000 </r>
       <r>     8.0431     0.0002   450.0000 </r>
       <r>     8.1164     0.0000   450.0000 </r>
       <r>     8.1897     0.0000   450.0000 </r>
       <r>     8.2630     0.0000   450.0000 </r>
      </set>
     </set>
    </array>
   </total>
  </dos>
 </calculation>
 <structure name="finalpos" >
  <crystal>
   <varray name="basis" >
    <v>       8.42164176       0.00000000       0.00000000 </v>
    <v>       4.21082088       7.29335571       0.00000000 </v>
    <v>       0.00000000       0.00000000      21.87624171 </v>
   </varray>
   <i name="volume">   1343.68315334 </i>
   <varray name="rec_basis" >
    <v>       0.11874169      -0.06855555       0.00000000 </v>
    <v>       0.00000000       0.13711110       0.00000000 </v>
    <v>       0.00000000       0.00000000       0.04571169 </v>
   </varray>
  </crystal>
  <varray name="positions" >
   <v>       0.00000000       0.00000000       0.34283768 </v>
   <v>       0.33333333       0.00000000       0.34283768 </v>
   <v>       0.66666667       0.00000000       0.34283768 </v>
   <v>       0.00000000       0.33333333       0.34283768 </v>
   <v>       0.33333333       0.33333333       0.34283768 </v>
   <v>       0.66666667       0.33333333       0.34283768 </v>
   <v>       0.00000000       0.66666667       0.34283768 </v>
   <v>       0.33333333       0.66666667       0.34283768 </v>
   <v>       0.66666667       0.66666667       0.34283768 </v>
   <v>       0.11111111       0.11111111       0.44761256 </v>
   <v>       0.44444444       0.11111111       0.44761256 </v>
   <v>       0.77777778       0.11111111       0.44761256 </v>
   <v>       0.11111111       0.44444444       0.44761256 </v>
   <v>       0.44444444       0.44444444       0.44761256 </v>
   <v>       0.77777778       0.44444444       0.44761256 </v>
   <v>       0.11111111       0.77777778       0.44761256 </v>
   <v>       0.44444444       0.77777778       0.44761256 </v>
   <v>       0.77777778       0.77777778       0.44761256 </v>
   <v>       0.88880269       0.22246864       0.55074865 </v>
   <v>       0.22286731       0.22383398       0.55225837 </v>
   <v>       0.55421601       0.22242033       0.55214179 </v>
   <v>       0.88797649       0.55650505       0.55106743 </v>
   <v>       0.22267469       0.55251921       0.55284426 </v>
   <v>       0.55401487       0.55710024       0.55069641 </v>
   <v>       0.88442469       0.89087452       0.55271808 </v>
   <v>       0.22045978       0.88875937       0.55045762 </v>
   <v>       0.55546855       0.89103318       0.55223428 </v>
   <v>       0.99711981       0.00121383       0.65602023 </v>
   <v>       0.32786159       0.99896524       0.65492262 </v>
   <v>       0.66129139       0.00484446       0.66420994 </v>
   <v>       0.99755567       0.33557713       0.65601588 </v>
   <v>       0.33449545       0.33204052       0.66454342 </v>
   <v>       0.66653639       0.33714803       0.65462989 </v>
   <v>       0.99701562       0.66792043       0.65632529 </v>
   <v>       0.32992381       0.66836691       0.65608148 </v>
   <v>       0.66407476       0.66858163       0.65604814 </v>
   <v>       0.41057677       0.25630111       0.75671477 </v>
   <v>       0.58695348       0.07968935       0.75647312 </v>
   <v>       0.41944836       0.37246933       0.77552328 </v>
   <v>       0.29417945       0.24780372       0.77549050 </v>
   <v>       0.70390050       0.08785725       0.77491244 </v>
   <v>       0.57853529       0.96311503       0.77512002 </v>
  </varray>
  <varray name="selective"  type="logical" >
   <v type="logical" >  F  F  F </v>
   <v type="logical" >  F  F  F </v>
   <v type="logical" >  F  F  F </v>
   <v type="logical" >  F  F  F </v>
   <v type="logical" >  F  F  F </v>
   <v type="logical" >  F  F  F </v>
   <v type="logical" >  F  F  F </v>
   <v type="logical" >  F  F  F </v>
   <v type="logical" >  F  F  F </v>
   <v type="logical" >  F  F  F </v>
   <v type="logical" >  F  F  F </v>
   <v type="logical" >  F  F  F </v>
   <v type="logical" >  F  F  F </v>
   <v type="logical" >  F  F  F </v>
   <v type="logical" >  F  F  F </v>
   <v type="logical" >  F  F  F </v>
   <v type="logical" >  F  F  F </v>
   <v type="logical" >  F  F  F </v>
   <v type="logical" >  T  T  T </v>
   <v type="logical" >  T  T  T </v>
   <v type="logical" >  T  T  T </v>
   <v type="logical" >  T  T  T </v>
   <v type="logical" >  T  T  T </v>
   <v type="logical" >  T  T  T </v>
   <v type="logical" >  T  T  T </v>
   <v type="logical" >  T  T  T </v>
   <v type="logical" >  T  T  T </v>
   <v type="logical" >  T  T  T </v>
   <v type="logical" >  T  T  T </v>
   <v type="logical" >  T  T  T </v>
   <v type="logical" >  T  T  T </v>
   <v type="logical" >  T  T  T </v>
   <v type="logical" >  T  T  T </v>
   <v type="logical" >  T  T  T </v>
   <v type="logical" >  T  T  T </v>
   <v type="logical" >  T  T  T </v>
   <v type="logical" >  T  T  T </v>
   <v type="logical" >  T  T  T </v>
   <v type="logical" >  T  T  T </v>
   <v type="logical" >  T  T  T </v>
   <v type="logical" >  T  T  T </v>
   <v type="logical" >  T  T  T </v>
  </varray>
  <nose>
   <v>      -3.00000000       0.00000000       0.00010000       0.00010000 </v>
  </nose>
 </structure>
</modeling>
