   5   5   0   0
  0.1600000E+04  0.2000000E-08  0.2000000E-08  0.2000000E-08  0.5000000E-15
  1.000000000000000E-004
  CAR 
 unknown system                          
      1.32499922    -18.00444633  301     -6.85779940      1.00000000
    -18.004  0.0000E+00  0.0000E+00
    -17.940  0.0000E+00  0.0000E+00
    -17.876  0.0000E+00  0.0000E+00
    -17.811  0.9735E-02  0.6272E-03
    -17.747  0.8801E-02  0.1194E-02
    -17.682  0.1675E-01  0.2274E-02
    -17.618  0.3185E-01  0.4326E-02
    -17.553  0.6049E-01  0.8223E-02
    -17.489  0.1146E+00  0.1560E-01
    -17.425  0.2159E+00  0.2951E-01
    -17.360  0.4029E+00  0.5547E-01
    -17.296  0.7388E+00  0.1031E+00
    -17.231  0.1312E+01  0.1876E+00
    -17.167  0.2200E+01  0.3293E+00
    -17.102  0.3362E+01  0.5459E+00
    -17.038  0.4469E+01  0.8339E+00
    -16.974  0.4957E+01  0.1153E+01
    -16.909  0.4505E+01  0.1444E+01
    -16.845  0.3411E+01  0.1663E+01
    -16.780  0.2243E+01  0.1808E+01
    -16.716  0.1341E+01  0.1894E+01
    -16.651  0.7568E+00  0.1943E+01
    -16.587  0.4132E+00  0.1970E+01
    -16.523  0.2215E+00  0.1984E+01
    -16.458  0.1176E+00  0.1992E+01
    -16.394  0.6209E-01  0.1996E+01
    -16.329  0.3270E-01  0.1998E+01
    -16.265  0.1719E-01  0.1999E+01
    -16.200  0.0000E+00  0.2000E+01
    -16.136  0.0000E+00  0.2000E+01
    -16.072  0.0000E+00  0.2000E+01
    -16.007  0.0000E+00  0.2000E+01
    -15.943  0.0000E+00  0.2000E+01
    -15.878  0.0000E+00  0.2000E+01
    -15.814  0.0000E+00  0.2000E+01
    -15.749  0.0000E+00  0.2000E+01
    -15.685  0.0000E+00  0.2000E+01
    -15.620  0.0000E+00  0.2000E+01
    -15.556  0.0000E+00  0.2000E+01
    -15.492  0.0000E+00  0.2000E+01
    -15.427  0.0000E+00  0.2000E+01
    -15.363  0.0000E+00  0.2000E+01
    -15.298  0.0000E+00  0.2000E+01
    -15.234  0.0000E+00  0.2000E+01
    -15.169  0.0000E+00  0.2000E+01
    -15.105  0.0000E+00  0.2000E+01
    -15.041  0.0000E+00  0.2000E+01
    -14.976  0.0000E+00  0.2000E+01
    -14.912  0.0000E+00  0.2000E+01
    -14.847  0.0000E+00  0.2000E+01
    -14.783  0.0000E+00  0.2000E+01
    -14.718  0.0000E+00  0.2000E+01
    -14.654  0.0000E+00  0.2000E+01
    -14.590  0.0000E+00  0.2000E+01
    -14.525  0.0000E+00  0.2000E+01
    -14.461  0.0000E+00  0.2000E+01
    -14.396  0.0000E+00  0.2000E+01
    -14.332  0.0000E+00  0.2000E+01
    -14.267  0.0000E+00  0.2000E+01
    -14.203  0.0000E+00  0.2000E+01
    -14.139  0.0000E+00  0.2000E+01
    -14.074  0.0000E+00  0.2000E+01
    -14.010  0.0000E+00  0.2000E+01
    -13.945  0.0000E+00  0.2000E+01
    -13.881  0.0000E+00  0.2000E+01
    -13.816  0.0000E+00  0.2000E+01
    -13.752  0.0000E+00  0.2000E+01
    -13.688  0.0000E+00  0.2000E+01
    -13.623  0.0000E+00  0.2000E+01
    -13.559  0.0000E+00  0.2000E+01
    -13.494  0.0000E+00  0.2000E+01
    -13.430  0.0000E+00  0.2000E+01
    -13.365  0.0000E+00  0.2000E+01
    -13.301  0.0000E+00  0.2000E+01
    -13.237  0.0000E+00  0.2000E+01
    -13.172  0.0000E+00  0.2000E+01
    -13.108  0.0000E+00  0.2000E+01
    -13.043  0.0000E+00  0.2000E+01
    -12.979  0.0000E+00  0.2000E+01
    -12.914  0.0000E+00  0.2000E+01
    -12.850  0.0000E+00  0.2000E+01
    -12.785  0.0000E+00  0.2000E+01
    -12.721  0.0000E+00  0.2000E+01
    -12.657  0.0000E+00  0.2000E+01
    -12.592  0.0000E+00  0.2000E+01
    -12.528  0.0000E+00  0.2000E+01
    -12.463  0.0000E+00  0.2000E+01
    -12.399  0.0000E+00  0.2000E+01
    -12.334  0.0000E+00  0.2000E+01
    -12.270  0.0000E+00  0.2000E+01
    -12.206  0.0000E+00  0.2000E+01
    -12.141  0.0000E+00  0.2000E+01
    -12.077  0.0000E+00  0.2000E+01
    -12.012  0.0000E+00  0.2000E+01
    -11.948  0.0000E+00  0.2000E+01
    -11.883  0.0000E+00  0.2000E+01
    -11.819  0.0000E+00  0.2000E+01
    -11.755  0.0000E+00  0.2000E+01
    -11.690  0.0000E+00  0.2000E+01
    -11.626  0.0000E+00  0.2000E+01
    -11.561  0.0000E+00  0.2000E+01
    -11.497  0.0000E+00  0.2000E+01
    -11.432  0.0000E+00  0.2000E+01
    -11.368  0.0000E+00  0.2000E+01
    -11.304  0.0000E+00  0.2000E+01
    -11.239  0.0000E+00  0.2000E+01
    -11.175  0.0000E+00  0.2000E+01
    -11.110  0.0000E+00  0.2000E+01
    -11.046  0.0000E+00  0.2000E+01
    -10.981  0.0000E+00  0.2000E+01
    -10.917  0.0000E+00  0.2000E+01
    -10.853  0.0000E+00  0.2000E+01
    -10.788  0.0000E+00  0.2000E+01
    -10.724  0.0000E+00  0.2000E+01
    -10.659  0.0000E+00  0.2000E+01
    -10.595  0.0000E+00  0.2000E+01
    -10.530  0.0000E+00  0.2000E+01
    -10.466  0.0000E+00  0.2000E+01
    -10.402  0.0000E+00  0.2000E+01
    -10.337  0.0000E+00  0.2000E+01
    -10.273  0.6691E-02  0.2000E+01
    -10.208  0.2361E-01  0.2002E+01
    -10.144  0.2740E-01  0.2004E+01
    -10.079  0.5213E-01  0.2007E+01
    -10.015  0.9913E-01  0.2013E+01
     -9.951  0.1882E+00  0.2026E+01
     -9.886  0.3563E+00  0.2049E+01
     -9.822  0.6709E+00  0.2092E+01
     -9.757  0.1250E+01  0.2172E+01
     -9.693  0.2287E+01  0.2320E+01
     -9.628  0.4041E+01  0.2580E+01
     -9.564  0.6732E+01  0.3014E+01
     -9.499  0.1019E+02  0.3670E+01
     -9.435  0.1341E+02  0.4534E+01
     -9.371  0.1475E+02  0.5485E+01
     -9.306  0.1336E+02  0.6346E+01
     -9.242  0.1012E+02  0.6998E+01
     -9.177  0.6668E+01  0.7427E+01
     -9.113  0.3995E+01  0.7685E+01
     -9.048  0.2257E+01  0.7830E+01
     -8.984  0.1233E+01  0.7910E+01
     -8.920  0.6615E+00  0.7952E+01
     -8.855  0.3513E+00  0.7975E+01
     -8.791  0.1855E+00  0.7987E+01
     -8.726  0.9771E-01  0.7993E+01
     -8.662  0.5139E-01  0.7996E+01
     -8.597  0.2010E-01  0.7999E+01
     -8.533  0.0000E+00  0.8000E+01
     -8.469  0.0000E+00  0.8000E+01
     -8.404  0.0000E+00  0.8000E+01
     -8.340  0.0000E+00  0.8000E+01
     -8.275  0.0000E+00  0.8000E+01
     -8.211  0.0000E+00  0.8000E+01
     -8.146  0.0000E+00  0.8000E+01
     -8.082  0.0000E+00  0.8000E+01
     -8.018  0.0000E+00  0.8000E+01
     -7.953  0.0000E+00  0.8000E+01
     -7.889  0.0000E+00  0.8000E+01
     -7.824  0.0000E+00  0.8000E+01
     -7.760  0.0000E+00  0.8000E+01
     -7.695  0.0000E+00  0.8000E+01
     -7.631  0.0000E+00  0.8000E+01
     -7.567  0.0000E+00  0.8000E+01
     -7.502  0.0000E+00  0.8000E+01
     -7.438  0.0000E+00  0.8000E+01
     -7.373  0.0000E+00  0.8000E+01
     -7.309  0.0000E+00  0.8000E+01
     -7.244  0.0000E+00  0.8000E+01
     -7.180  0.0000E+00  0.8000E+01
     -7.116  0.0000E+00  0.8000E+01
     -7.051  0.0000E+00  0.8000E+01
     -6.987  0.0000E+00  0.8000E+01
     -6.922  0.0000E+00  0.8000E+01
     -6.858  0.0000E+00  0.8000E+01
     -6.793  0.0000E+00  0.8000E+01
     -6.729  0.0000E+00  0.8000E+01
     -6.665  0.0000E+00  0.8000E+01
     -6.600  0.0000E+00  0.8000E+01
     -6.536  0.0000E+00  0.8000E+01
     -6.471  0.0000E+00  0.8000E+01
     -6.407  0.0000E+00  0.8000E+01
     -6.342  0.0000E+00  0.8000E+01
     -6.278  0.0000E+00  0.8000E+01
     -6.213  0.0000E+00  0.8000E+01
     -6.149  0.0000E+00  0.8000E+01
     -6.085  0.0000E+00  0.8000E+01
     -6.020  0.0000E+00  0.8000E+01
     -5.956  0.0000E+00  0.8000E+01
     -5.891  0.0000E+00  0.8000E+01
     -5.827  0.0000E+00  0.8000E+01
     -5.762  0.0000E+00  0.8000E+01
     -5.698  0.0000E+00  0.8000E+01
     -5.634  0.0000E+00  0.8000E+01
     -5.569  0.0000E+00  0.8000E+01
     -5.505  0.0000E+00  0.8000E+01
     -5.440  0.0000E+00  0.8000E+01
     -5.376  0.0000E+00  0.8000E+01
     -5.311  0.0000E+00  0.8000E+01
     -5.247  0.0000E+00  0.8000E+01
     -5.183  0.0000E+00  0.8000E+01
     -5.118  0.0000E+00  0.8000E+01
     -5.054  0.0000E+00  0.8000E+01
     -4.989  0.0000E+00  0.8000E+01
     -4.925  0.0000E+00  0.8000E+01
     -4.860  0.0000E+00  0.8000E+01
     -4.796  0.0000E+00  0.8000E+01
     -4.732  0.0000E+00  0.8000E+01
     -4.667  0.0000E+00  0.8000E+01
     -4.603  0.0000E+00  0.8000E+01
     -4.538  0.0000E+00  0.8000E+01
     -4.474  0.0000E+00  0.8000E+01
     -4.409  0.0000E+00  0.8000E+01
     -4.345  0.0000E+00  0.8000E+01
     -4.281  0.0000E+00  0.8000E+01
     -4.216  0.0000E+00  0.8000E+01
     -4.152  0.0000E+00  0.8000E+01
     -4.087  0.0000E+00  0.8000E+01
     -4.023  0.0000E+00  0.8000E+01
     -3.958  0.0000E+00  0.8000E+01
     -3.894  0.0000E+00  0.8000E+01
     -3.830  0.0000E+00  0.8000E+01
     -3.765  0.0000E+00  0.8000E+01
     -3.701  0.0000E+00  0.8000E+01
     -3.636  0.0000E+00  0.8000E+01
     -3.572  0.0000E+00  0.8000E+01
     -3.507  0.0000E+00  0.8000E+01
     -3.443  0.0000E+00  0.8000E+01
     -3.378  0.0000E+00  0.8000E+01
     -3.314  0.0000E+00  0.8000E+01
     -3.250  0.0000E+00  0.8000E+01
     -3.185  0.0000E+00  0.8000E+01
     -3.121  0.0000E+00  0.8000E+01
     -3.056  0.0000E+00  0.8000E+01
     -2.992  0.0000E+00  0.8000E+01
     -2.927  0.0000E+00  0.8000E+01
     -2.863  0.0000E+00  0.8000E+01
     -2.799  0.0000E+00  0.8000E+01
     -2.734  0.0000E+00  0.8000E+01
     -2.670  0.0000E+00  0.8000E+01
     -2.605  0.0000E+00  0.8000E+01
     -2.541  0.0000E+00  0.8000E+01
     -2.476  0.0000E+00  0.8000E+01
     -2.412  0.0000E+00  0.8000E+01
     -2.348  0.0000E+00  0.8000E+01
     -2.283  0.0000E+00  0.8000E+01
     -2.219  0.0000E+00  0.8000E+01
     -2.154  0.0000E+00  0.8000E+01
     -2.090  0.0000E+00  0.8000E+01
     -2.025  0.0000E+00  0.8000E+01
     -1.961  0.0000E+00  0.8000E+01
     -1.897  0.0000E+00  0.8000E+01
     -1.832  0.0000E+00  0.8000E+01
     -1.768  0.0000E+00  0.8000E+01
     -1.703  0.0000E+00  0.8000E+01
     -1.639  0.0000E+00  0.8000E+01
     -1.574  0.0000E+00  0.8000E+01
     -1.510  0.0000E+00  0.8000E+01
     -1.446  0.0000E+00  0.8000E+01
     -1.381  0.0000E+00  0.8000E+01
     -1.317  0.0000E+00  0.8000E+01
     -1.252  0.7102E-02  0.8000E+01
     -1.188  0.6423E-02  0.8001E+01
     -1.123  0.1223E-01  0.8002E+01
     -1.059  0.2326E-01  0.8003E+01
     -0.995  0.4421E-01  0.8006E+01
     -0.930  0.8385E-01  0.8011E+01
     -0.866  0.1585E+00  0.8022E+01
     -0.801  0.3038E+00  0.8041E+01
     -0.737  0.5565E+00  0.8077E+01
     -0.672  0.1007E+01  0.8142E+01
     -0.608  0.1745E+01  0.8254E+01
     -0.544  0.2835E+01  0.8437E+01
     -0.479  0.4075E+01  0.8699E+01
     -0.415  0.5021E+01  0.9023E+01
     -0.350  0.5201E+01  0.9358E+01
     -0.286  0.4666E+01  0.9659E+01
     -0.221  0.4037E+01  0.9919E+01
     -0.157  0.3959E+01  0.1017E+02
     -0.092  0.4780E+01  0.1048E+02
     -0.028  0.6538E+01  0.1090E+02
      0.036  0.9007E+01  0.1148E+02
      0.101  0.1192E+02  0.1225E+02
      0.165  0.1526E+02  0.1323E+02
      0.230  0.1876E+02  0.1444E+02
      0.294  0.2107E+02  0.1580E+02
      0.359  0.2039E+02  0.1711E+02
      0.423  0.1662E+02  0.1819E+02
      0.487  0.1164E+02  0.1894E+02
      0.552  0.7269E+01  0.1940E+02
      0.616  0.4214E+01  0.1968E+02
      0.681  0.2337E+01  0.1983E+02
      0.745  0.1264E+01  0.1991E+02
      0.810  0.6739E+00  0.1995E+02
      0.874  0.3496E+00  0.1997E+02
      0.938  0.1843E+00  0.1999E+02
      1.003  0.9701E-01  0.1999E+02
      1.067  0.5100E-01  0.2000E+02
      1.132  0.0000E+00  0.2000E+02
      1.196  0.0000E+00  0.2000E+02
      1.261  0.0000E+00  0.2000E+02
      1.325  0.0000E+00  0.2000E+02
