 vasp.5.4.1 24Jun15 (build Oct 10 2016 12:42:00) complex                        
  
 executed on           IFC91_ompi date 2018.07.06  00:50:41
 running on   20 total cores
 distrk:  each k-point on   20 cores,    1 groups
 distr:  one band on NCORES_PER_BAND=   4 cores,    5 groups


--------------------------------------------------------------------------------------------------------


 INCAR:
 POTCAR:    PAW_PBE C 08Apr2002                   
 POTCAR:    PAW_PBE H 15Jun2001                   
 POTCAR:    PAW_PBE C 08Apr2002                   
   VRHFIN =C: s2p2                                                              
   LEXCH  = PE                                                                  
   EATOM  =   147.1560 eV,   10.8157 Ry                                         
                                                                                
   TITEL  = PAW_PBE C 08Apr2002                                                 
   LULTRA =        F    use ultrasoft PP ?                                      
   IUNSCR =        1    unscreen: 0-lin 1-nonlin 2-no                           
   RPACOR =    1.200    partial core radius                                     
   POMASS =   12.011; ZVAL   =    4.000    mass and valenz                      
   RCORE  =    1.500    outmost cutoff radius                                   
   RWIGS  =    1.630; RWIGS  =    0.863    wigner-seitz radius (au A)           
   ENMAX  =  400.000; ENMIN  =  300.000 eV                                      
   ICORE  =        2    local potential                                         
   LCOR   =        T    correct aug charges                                     
   LPAW   =        T    paw PP                                                  
   EAUG   =  644.873                                                            
   DEXC   =    0.000                                                            
   RMAX   =    1.529    core radius for proj-oper                               
   RAUG   =    1.300    factor for augmentation sphere                          
   RDEP   =    1.501    radius for radial grids                                 
   RDEPT  =    1.300    core radius for aug-charge                              
                                                                                
   Atomic configuration                                                         
    4 entries                                                                   
     n  l   j            E        occ.                                          
     1  0  0.50      -273.3789   2.0000                                         
     2  0  0.50       -13.7508   2.0000                                         
     2  1  0.50        -5.2854   2.0000                                         
     3  2  1.50        -5.4423   0.0000                                         
   Description                                                                  
     l       E           TYP  RCUT    TYP  RCUT                                 
     0    -13.7508458     23  1.200                                             
     0     -8.2022199     23  1.200                                             
     1     -5.2854383     23  1.500                                             
     1     34.0145650     23  1.500                                             
     2     -5.4423304      7  1.500                                             
  local pseudopotential read in
  partial core-charges read in
  partial kinetic energy density read in
  atomic valenz-charges read in
  non local Contribution for L=           0  read in
    real space projection operators read in
  non local Contribution for L=           0  read in
    real space projection operators read in
  non local Contribution for L=           1  read in
    real space projection operators read in
  non local Contribution for L=           1  read in
    real space projection operators read in
    PAW grid and wavefunctions read in
 
   number of l-projection  operators is LMAX  =           4
   number of lm-projection operators is LMMAX =           8
 
 POTCAR:    PAW_PBE H 15Jun2001                   
   VRHFIN =H: ultrasoft test                                                    
   LEXCH  = PE                                                                  
   EATOM  =    12.4884 eV,    0.9179 Ry                                         
                                                                                
   TITEL  = PAW_PBE H 15Jun2001                                                 
   LULTRA =        F    use ultrasoft PP ?                                      
   IUNSCR =        0    unscreen: 0-lin 1-nonlin 2-no                           
   RPACOR =    0.000    partial core radius                                     
   POMASS =    1.000; ZVAL   =    1.000    mass and valenz                      
   RCORE  =    1.100    outmost cutoff radius                                   
   RWIGS  =    0.700; RWIGS  =    0.370    wigner-seitz radius (au A)           
   ENMAX  =  250.000; ENMIN  =  200.000 eV                                      
   RCLOC  =    0.701    cutoff for local pot                                    
   LCOR   =        T    correct aug charges                                     
   LPAW   =        T    paw PP                                                  
   EAUG   =  400.000                                                            
   RMAX   =    1.123    core radius for proj-oper                               
   RAUG   =    1.200    factor for augmentation sphere                          
   RDEP   =    1.112    radius for radial grids                                 
   RDEPT  =    0.926    core radius for aug-charge                              
                                                                                
   Atomic configuration                                                         
    2 entries                                                                   
     n  l   j            E        occ.                                          
     1  0  0.50        -6.4927   1.0000                                         
     2  1  0.50        -3.4015   0.0000                                         
   Description                                                                  
     l       E           TYP  RCUT    TYP  RCUT                                 
     0     -6.4927494     23  1.100                                             
     0      6.8029130     23  1.100                                             
     1     -4.0817478     23  1.100                                             
  local pseudopotential read in
  atomic valenz-charges read in
  non local Contribution for L=           0  read in
    real space projection operators read in
  non local Contribution for L=           0  read in
    real space projection operators read in
  non local Contribution for L=           1  read in
    real space projection operators read in
    PAW grid and wavefunctions read in
 
   number of l-projection  operators is LMAX  =           3
   number of lm-projection operators is LMMAX =           5
 

 ----------------------------------------------------------------------------- 
|                                                                             |
|  ADVICE TO THIS USER RUNNING 'VASP/VAMP'   (HEAR YOUR MASTER'S VOICE ...):  |
|                                                                             |
|      You have a (more or less) 'small supercell' and for smaller cells      |
|      it is recommended  to use the reciprocal-space projection scheme!      |
|      The real space optimization is not  efficient for small cells and it   |
|      is also less accurate ...                                              |
|      Therefore set LREAL=.FALSE. in the  INCAR file                         |
|                                                                             |
 ----------------------------------------------------------------------------- 

 Optimization of the real space projectors (new method)

 maximal supplied QI-value         = 25.13
 optimisation between [QCUT,QGAM] = [ 10.05, 20.36] = [ 28.30,116.06] Ry 
 Optimized for a Real-space Cutoff    1.30 Angstroem

   l    n(q)    QCUT    max X(q) W(low)/X(q) W(high)/X(q)  e(spline) 
   0      8    10.053   115.676    0.49E-03    0.72E-03    0.18E-06
   0      8    10.053    87.132    0.49E-03    0.71E-03    0.18E-06
   1      7    10.053     4.429    0.32E-03    0.31E-03    0.18E-06
   1      7    10.053     2.733    0.23E-03    0.19E-03    0.20E-06
 Optimization of the real space projectors (new method)

 maximal supplied QI-value         = 34.20
 optimisation between [QCUT,QGAM] = [  9.92, 20.18] = [ 27.55,114.04] Ry 
 Optimized for a Real-space Cutoff    1.26 Angstroem

   l    n(q)    QCUT    max X(q) W(low)/X(q) W(high)/X(q)  e(spline) 
   0      8     9.919    19.460    0.50E-03    0.23E-03    0.29E-06
   0      8     9.919    12.209    0.48E-03    0.23E-03    0.28E-06
   1      7     9.919     4.655    0.17E-03    0.75E-03    0.30E-06
  PAW_PBE C 08Apr2002                   :
 energy of atom  1       EATOM= -147.1560
 kinetic energy error for atom=    0.0288 (will be added to EATOM!!)
  PAW_PBE H 15Jun2001                   :
 energy of atom  2       EATOM=  -12.4884
 kinetic energy error for atom=    0.0098 (will be added to EATOM!!)
 
 
 POSCAR:  C  H                                   
  positions in cartesian coordinates
  No initial velocities read in
 exchange correlation table for  LEXCH =        8
   RHO(1)=    0.500       N(1)  =     2000
   RHO(2)=  100.500       N(2)  =     4000

 VTST: version 3.1, (03/28/14)

 CHAIN: initializing optimizer
 
 OPT: Using VASP Dynamics algorithm
 CHAIN: Read ICHAIN            0
 
 POSCAR:  C  H                                   
  positions in cartesian coordinates
  No initial velocities read in
 


--------------------------------------------------------------------------------------------------------


 ion  position               nearest neighbor table
   1  0.500  0.500  0.500-   5 1.09   3 1.10   4 1.10   2 1.10
   2  0.532  0.532  0.532-   1 1.10
   3  0.468  0.468  0.532-   1 1.10
   4  0.532  0.468  0.468-   1 1.10
   5  0.468  0.532  0.469-   1 1.09
 
  LATTYP: Found a simple cubic cell.
 ALAT       =    20.0000000000
  
  Lattice vectors:
  
 A1 = (  20.0000000000,   0.0000000000,   0.0000000000)
 A2 = (   0.0000000000,  20.0000000000,   0.0000000000)
 A3 = (   0.0000000000,   0.0000000000,  20.0000000000)


Analysis of symmetry for initial positions (statically):
=====================================================================
 Subroutine PRICEL returns:
 Original cell was already a primitive cell.
 

 Routine SETGRP: Setting up the symmetry group for a 
 simple cubic supercell.


 Subroutine GETGRP returns: Found  2 space group operations
 (whereof  2 operations were pure point group operations)
 out of a pool of 48 trial point group operations.


The static configuration has the point symmetry C_1h.


Analysis of symmetry for dynamics (positions and initial velocities):
=====================================================================
 Subroutine PRICEL returns:
 Original cell was already a primitive cell.
 

 Routine SETGRP: Setting up the symmetry group for a 
 simple cubic supercell.


 Subroutine GETGRP returns: Found  2 space group operations
 (whereof  2 operations were pure point group operations)
 out of a pool of 48 trial point group operations.


The dynamic configuration has the point symmetry C_1h.
 
 
 KPOINTS: KPOINTS created by Atomic Simulation Env

Automatic generation of k-mesh.
Space group operators:
 irot       det(A)        alpha          n_x          n_y          n_z        tau_x        tau_y        tau_z
    1     1.000000     0.000000     1.000000     0.000000     0.000000     0.000000     0.000000     0.000000
    2    -1.000000   180.000000     0.707107     0.707107     0.000000     0.000000     0.000000     0.000000
 
 Subroutine IBZKPT returns following result:
 ===========================================
 
 Found      1 irreducible k-points:
 
 Following reciprocal coordinates:
            Coordinates               Weight
  0.000000  0.000000  0.000000      1.000000
 
 Following cartesian coordinates:
            Coordinates               Weight
  0.000000  0.000000  0.000000      1.000000
 


--------------------------------------------------------------------------------------------------------




 Dimension of arrays:
   k-points           NKPTS =      1   k-points in BZ     NKDIM =      1   number of bands    NBANDS=     10
   number of dos      NEDOS =    301   number of ions     NIONS =      5
   non local maximal  LDIM  =      4   non local SUM 2l+1 LMDIM =      8
   total plane-waves  NPLWV = 941192
   max r-space proj   IRMAX =   1135   max aug-charges    IRDMAX=   1588
   dimension x,y,z NGX =    98 NGY =   98 NGZ =   98
   dimension x,y,z NGXF=   196 NGYF=  196 NGZF=  196
   support grid    NGXF=   196 NGYF=  196 NGZF=  196
   ions per type =               1   4
 NGX,Y,Z   is equivalent  to a cutoff of   8.15,  8.15,  8.15 a.u.
 NGXF,Y,Z  is equivalent  to a cutoff of  16.29, 16.29, 16.29 a.u.


 I would recommend the setting:
   dimension x,y,z NGX =    98 NGY =   98 NGZ =   98
 SYSTEM =  unknown system                          
 POSCAR =   C  H                                   

 Startparameter for this run:
   NWRITE =      2    write-flag & timer
   PREC   = normal    normal or accurate (medium, high low for compatibility)
   ISTART =      0    job   : 0-new  1-cont  2-samecut
   ICHARG =      2    charge: 1-file 2-atom 10-const
   ISPIN  =      1    spin polarized calculation?
   LNONCOLLINEAR =      F non collinear calculations
   LSORBIT =      F    spin-orbit coupling
   INIWAV =      1    electr: 0-lowe 1-rand  2-diag
   LASPH  =      F    aspherical Exc in radial PAW
   METAGGA=      F    non-selfconsistent MetaGGA calc.

 Electronic Relaxation 1
   ENCUT  =  400.0 eV  29.40 Ry    5.42 a.u.  32.61 32.61 32.61*2*pi/ulx,y,z
   ENINI  =  400.0     initial cutoff
   ENAUG  =  644.9 eV  augmentation charge cutoff
   NELM   =     60;   NELMIN=  4; NELMDL= -4     # of ELM steps 
   EDIFF  = 0.1E-05   stopping-criterion for ELM
   LREAL  =      T    real-space projection
   NLSPLINE    = F    spline interpolate recip. space projectors
   LCOMPAT=      F    compatible to vasp.4.4
   GGA_COMPAT  = T    GGA compatible to vasp.4.4-vasp.4.6
   LMAXPAW     = -100 max onsite density
   LMAXMIX     =    2 max onsite mixed and CHGCAR
   VOSKOWN=      0    Vosko Wilk Nusair interpolation
   ROPT   =   -0.00050  -0.00050
 Ionic relaxation
   EDIFFG = 0.1E-04   stopping-criterion for IOM
   NSW    =      0    number of steps for IOM
   NBLOCK =      1;   KBLOCK =      1    inner block; outer block 
   IBRION =     -1    ionic relax: 0-MD 1-quasi-New 2-CG
   NFREE  =      0    steps in history (QN), initial steepest desc. (CG)
   ISIF   =      2    stress and relaxation
   IWAVPR =     10    prediction:  0-non 1-charg 2-wave 3-comb
   ISYM   =      2    0-nonsym 1-usesym 2-fastsym
   LCORR  =      T    Harris-Foulkes like correction to forces

   POTIM  = 0.5000    time-step for ionic-motion
   TEIN   =    0.0    initial temperature
   TEBEG  =    0.0;   TEEND  =   0.0 temperature during run
   SMASS  =  -3.00    Nose mass-parameter (am)
   estimated Nose-frequenzy (Omega)   =  0.10E-29 period in steps =****** mass=  -0.914E-26a.u.
   SCALEE = 1.0000    scale energy and forces
   NPACO  =    256;   APACO  = 16.0  distance and # of slots for P.C.
   PSTRESS=    0.0 pullay stress

  Mass of Ions in am
   POMASS =  12.01  1.00
  Ionic Valenz
   ZVAL   =   4.00  1.00
  Atomic Wigner-Seitz radii
   RWIGS  =  -1.00 -1.00
  virtual crystal weights 
   VCA    =   1.00  1.00
   NELECT =       8.0000    total number of electrons
   NUPDOWN=      -1.0000    fix difference up-down

 DOS related values:
   EMIN   =  10.00;   EMAX   =-10.00  energy-range for DOS
   EFERMI =   0.00
   ISMEAR =    -1;   SIGMA  =   0.10  broadening in eV -4-tet -1-fermi 0-gaus

 Electronic relaxation 2 (details)
   IALGO  =     68    algorithm
   LDIAG  =      T    sub-space diagonalisation (order eigenvalues)
   LSUBROT=      F    optimize rotation matrix (better conditioning)
   TURBO    =      0    0=normal 1=particle mesh
   IRESTART =      0    0=no restart 2=restart with 2 vectors
   NREBOOT  =      0    no. of reboots
   NMIN     =      0    reboot dimension
   EREF     =   0.00    reference energy to select bands
   IMIX   =      4    mixing-type and parameters
     AMIX     =   0.40;   BMIX     =  1.00
     AMIX_MAG =   1.60;   BMIX_MAG =  1.00
     AMIN     =   0.10
     WC   =   100.;   INIMIX=   1;  MIXPRE=   1;  MAXMIX= -45

 Intra band minimization:
   WEIMIN = 0.0000     energy-eigenvalue tresh-hold
   EBREAK =  0.25E-07  absolut break condition
   DEPER  =   0.30     relativ break condition  

   TIME   =   0.40     timestep for ELM

  volume/ion in A,a.u.               =    1600.00     10797.33
  Fermi-wavevector in a.u.,A,eV,Ry     =   0.163710  0.309367  0.364649  0.026801
  Thomas-Fermi vector in A             =   0.862763
 
 Write flags
   LWAVE  =      F    write WAVECAR
   LCHARG =      F    write CHGCAR
   LVTOT  =      F    write LOCPOT, total local potential
   LVHAR  =      F    write LOCPOT, Hartree potential only
   LELF   =      F    write electronic localiz. function (ELF)
   LORBIT =      0    0 simple, 1 ext, 2 COOP (PROOUT)


 Dipole corrections
   LMONO  =      F    monopole corrections only (constant potential shift)
   LDIPOL =      F    correct potential (dipole corrections)
   IDIPOL =      0    1-x, 2-y, 3-z, 4-all directions 
   EPSILON=  1.0000000 bulk dielectric constant

 Exchange correlation treatment:
   GGA     =    PE    GGA type
   LEXCH   =     8    internal setting for exchange type
   VOSKOWN=      0    Vosko Wilk Nusair interpolation
   LHFCALC =     F    Hartree Fock is set to
   LHFONE  =     F    Hartree Fock one center treatment
   AEXX    =    0.0000 exact exchange contribution

 Linear response parameters
   LEPSILON=     F    determine dielectric tensor
   LRPA    =     F    only Hartree local field effects (RPA)
   LNABLA  =     F    use nabla operator in PAW spheres
   LVEL    =     F    velocity operator in full k-point grid
   LINTERFAST=   F  fast interpolation
   KINTER  =     0    interpolate to denser k-point grid
   CSHIFT  =0.1000    complex shift for real part using Kramers Kronig
   OMEGAMAX=  -1.0    maximum frequency
   DEG_THRESHOLD= 0.2000000E-02 threshold for treating states as degnerate
   RTIME   =    0.100 relaxation time in fs

 Orbital magnetization related:
   ORBITALMAG=     F  switch on orbital magnetization
   LCHIMAG   =     F  perturbation theory with respect to B field
   DQ        =  0.001000  dq finite difference perturbation B field



--------------------------------------------------------------------------------------------------------


 Static calculation
 charge density and potential will be updated during run
 non-spin polarized calculation
 RMM-DIIS sequential band-by-band and
  variant of blocked Davidson during initial phase
 perform sub-space diagonalisation
    before iterative eigenvector-optimisation
 modified Broyden-mixing scheme, WC =      100.0
 initial mixing is a Kerker type mixing with AMIX =  0.4000 and BMIX =      1.0000
 Hartree-type preconditioning will be used
 using additional bands            6
 real space projection scheme for non local part
 use partial core corrections
 calculate Harris-corrections to forces 
   (improved forces if not selfconsistent)
 use gradient corrections 
 use of overlap-Matrix (Vanderbilt PP)
 Fermi-smearing in eV        SIGMA  =   0.10


--------------------------------------------------------------------------------------------------------


  energy-cutoff  :      400.00
  volume of cell :     8000.00
      direct lattice vectors                 reciprocal lattice vectors
    20.000000000  0.000000000  0.000000000     0.050000000  0.000000000  0.000000000
     0.000000000 20.000000000  0.000000000     0.000000000  0.050000000  0.000000000
     0.000000000  0.000000000 20.000000000     0.000000000  0.000000000  0.050000000

  length of vectors
    20.000000000 20.000000000 20.000000000     0.050000000  0.050000000  0.050000000


 
 k-points in units of 2pi/SCALE and weight: KPOINTS created by Atomic Simulation Env
   0.00000000  0.00000000  0.00000000       1.000
 
 k-points in reciprocal lattice and weights: KPOINTS created by Atomic Simulation Env
   0.00000000  0.00000000  0.00000000       1.000
 
 position of ions in fractional coordinates (direct lattice) 
   0.50000000  0.50000000  0.50000000
   0.53166401  0.53166401  0.53166401
   0.46833599  0.46833599  0.53166401
   0.53166401  0.46833599  0.46833599
   0.46833599  0.53166401  0.46883599
 
 position of ions in cartesian coordinates  (Angst):
  10.00000000 10.00000000 10.00000000
  10.63328026 10.63328026 10.63328026
   9.36671974  9.36671974 10.63328026
  10.63328026  9.36671974  9.36671974
   9.36671974 10.63328026  9.37671974
 


--------------------------------------------------------------------------------------------------------


 k-point  1 :   0.0000 0.0000 0.0000  plane waves:  145165

 maximum and minimum number of plane-waves per node :     36308    36275

 maximum number of plane-waves:    145165
 maximum index in each direction: 
   IXMAX=   32   IYMAX=   32   IZMAX=   32
   IXMIN=  -32   IYMIN=  -32   IZMIN=  -32

 WARNING: aliasing errors must be expected set NGX to 130 to avoid them
 WARNING: aliasing errors must be expected set NGY to 130 to avoid them
 WARNING: aliasing errors must be expected set NGZ to 130 to avoid them
 aliasing errors are usually negligible using standard VASP settings
 and one can safely disregard these warnings

 real space projection operators:
  total allocation   :        214.48 KBytes
  max/ min on nodes  :         55.09         53.03


 parallel 3D FFT for wavefunctions:
    minimum data exchange during FFTs selected (reduces bandwidth)
 parallel 3D FFT for charge:
    minimum data exchange during FFTs selected (reduces bandwidth)


 total amount of memory used by VASP on root node    82974. kBytes
========================================================================

   base      :      30000. kBytes
   nonlr-proj:        154. kBytes
   fftplans  :      20340. kBytes
   grid      :      31312. kBytes
   one-center:          6. kBytes
   wavefun   :       1162. kBytes
 
     INWAV:  cpu time    0.0000: real time    0.0000
 Broyden mixing: mesh for mixing (old mesh)
   NGX = 65   NGY = 65   NGZ = 65
  (NGX  =196   NGY  =196   NGZ  =196)
  gives a total of 274625 points

 initial charge density was supplied:
 charge density of overlapping atoms calculated
 number of electron       8.0000000 magnetization 
 keeping initial charge density in first step


--------------------------------------------------------------------------------------------------------


 Maximum index for non-local projection operator          263
 Maximum index for augmentation-charges          137 (set IRDMAX)


--------------------------------------------------------------------------------------------------------


 First call to EWALD:  gamma=   0.089
 Maximum number of real-space cells 3x 3x 3
 Maximum number of reciprocal cells 3x 3x 3

 FEWALD executed in parallel
    FEWALD:  cpu time    0.0020: real time    0.0020


----------------------------------------- Iteration    1(   1)  ---------------------------------------


    POTLOK:  cpu time    0.8879: real time    0.8881
    SETDIJ:  cpu time    0.0030: real time    0.0025
     EDDAV:  cpu time    0.3939: real time    0.3935
       DOS:  cpu time    0.0000: real time    0.0001
    --------------------------------------------
      LOOP:  cpu time    1.2868: real time    1.3221

 eigenvalue-minimisations  :    40
 total energy-change (2. order) : 0.1013809E+02  (-0.1618371E+03)
 number of electron       8.0000000 magnetization 
 augmentation part        8.0000000 magnetization 

 Free energy of the ion-electron system (eV)
  ---------------------------------------------------
  alpha Z        PSCENC =         0.03028135
  Ewald energy   TEWEN  =       193.39772327
  -Hartree energ DENC   =      -306.77970353
  -exchange      EXHF   =         0.00000000
  -V(xc)+E(xc)   XCENC  =        22.01770555
  PAW double counting   =       117.05815612     -117.66307307
  entropy T*S    EENTRO =        -0.00000000
  eigenvalues    EBANDS =       -94.96475760
  atomic energy  EATOM  =       197.04175453
  Solvation  Ediel_sol  =         0.00000000
  ---------------------------------------------------
  free energy    TOTEN  =        10.13808662 eV

  energy without entropy =       10.13808662  energy(sigma->0) =       10.13808662


--------------------------------------------------------------------------------------------------------




----------------------------------------- Iteration    1(   2)  ---------------------------------------


     EDDAV:  cpu time    0.3060: real time    0.3057
       DOS:  cpu time    0.0000: real time    0.0003
    --------------------------------------------
      LOOP:  cpu time    0.3060: real time    0.3430

 eigenvalue-minimisations  :    30
 total energy-change (2. order) :-0.3635401E+02  (-0.3635401E+02)
 number of electron       8.0000000 magnetization 
 augmentation part        8.0000000 magnetization 

 Free energy of the ion-electron system (eV)
  ---------------------------------------------------
  alpha Z        PSCENC =         0.03028135
  Ewald energy   TEWEN  =       193.39772327
  -Hartree energ DENC   =      -306.77970353
  -exchange      EXHF   =         0.00000000
  -V(xc)+E(xc)   XCENC  =        22.01770555
  PAW double counting   =       117.05815612     -117.66307307
  entropy T*S    EENTRO =        -0.00000000
  eigenvalues    EBANDS =      -131.31876489
  atomic energy  EATOM  =       197.04175453
  Solvation  Ediel_sol  =         0.00000000
  ---------------------------------------------------
  free energy    TOTEN  =       -26.21592066 eV

  energy without entropy =      -26.21592066  energy(sigma->0) =      -26.21592066


--------------------------------------------------------------------------------------------------------




----------------------------------------- Iteration    1(   3)  ---------------------------------------


     EDDAV:  cpu time    0.3939: real time    0.3937
       DOS:  cpu time    0.0010: real time    0.0001
    --------------------------------------------
      LOOP:  cpu time    0.3959: real time    0.3956

 eigenvalue-minimisations  :    30
 total energy-change (2. order) :-0.1357829E+01  (-0.1357829E+01)
 number of electron       8.0000000 magnetization 
 augmentation part        8.0000000 magnetization 

 Free energy of the ion-electron system (eV)
  ---------------------------------------------------
  alpha Z        PSCENC =         0.03028135
  Ewald energy   TEWEN  =       193.39772327
  -Hartree energ DENC   =      -306.77970353
  -exchange      EXHF   =         0.00000000
  -V(xc)+E(xc)   XCENC  =        22.01770555
  PAW double counting   =       117.05815612     -117.66307307
  entropy T*S    EENTRO =        -0.00000000
  eigenvalues    EBANDS =      -132.67659416
  atomic energy  EATOM  =       197.04175453
  Solvation  Ediel_sol  =         0.00000000
  ---------------------------------------------------
  free energy    TOTEN  =       -27.57374993 eV

  energy without entropy =      -27.57374993  energy(sigma->0) =      -27.57374993


--------------------------------------------------------------------------------------------------------




----------------------------------------- Iteration    1(   4)  ---------------------------------------


     EDDAV:  cpu time    0.3879: real time    0.3877
       DOS:  cpu time    0.0000: real time    0.0001
    CHARGE:  cpu time    0.1350: real time    0.1361
    MIXING:  cpu time    0.0120: real time    0.0120
    --------------------------------------------
      LOOP:  cpu time    0.5359: real time    0.5380

 eigenvalue-minimisations  :    40
 total energy-change (2. order) :-0.4246526E-02  (-0.4246526E-02)
 number of electron       7.9999983 magnetization 
 augmentation part        0.2257432 magnetization 

 Broyden mixing:
  rms(total) = 0.87393E+00    rms(broyden)= 0.87374E+00
  rms(prec ) = 0.98019E+00
  weight for this iteration     100.00

 Free energy of the ion-electron system (eV)
  ---------------------------------------------------
  alpha Z        PSCENC =         0.03028135
  Ewald energy   TEWEN  =       193.39772327
  -Hartree energ DENC   =      -306.77970353
  -exchange      EXHF   =         0.00000000
  -V(xc)+E(xc)   XCENC  =        22.01770555
  PAW double counting   =       117.05815612     -117.66307307
  entropy T*S    EENTRO =        -0.00000000
  eigenvalues    EBANDS =      -132.68084068
  atomic energy  EATOM  =       197.04175453
  Solvation  Ediel_sol  =         0.00000000
  ---------------------------------------------------
  free energy    TOTEN  =       -27.57799646 eV

  energy without entropy =      -27.57799646  energy(sigma->0) =      -27.57799646


--------------------------------------------------------------------------------------------------------




----------------------------------------- Iteration    1(   5)  ---------------------------------------


    POTLOK:  cpu time    0.3969: real time    0.3972
    SETDIJ:  cpu time    0.0020: real time    0.0022
    EDDIAG:  cpu time    0.0530: real time    0.0550
  RMM-DIIS:  cpu time    0.2880: real time    0.2877
    ORTHCH:  cpu time    0.0040: real time    0.0034
       DOS:  cpu time    0.0000: real time    0.0002
    CHARGE:  cpu time    0.1350: real time    0.1348
    MIXING:  cpu time    0.0130: real time    0.0126
    --------------------------------------------
      LOOP:  cpu time    0.8949: real time    0.8950

 eigenvalue-minimisations  :    30
 total energy-change (2. order) : 0.2911627E+01  (-0.5650029E+00)
 number of electron       7.9999990 magnetization 
 augmentation part        0.1992044 magnetization 

 Broyden mixing:
  rms(total) = 0.42999E+00    rms(broyden)= 0.42990E+00
  rms(prec ) = 0.46638E+00
  weight for this iteration     100.00

 eigenvalues of (default mixing * dielectric matrix)
  average eigenvalue GAMMA=   1.3115
  1.3115

 Free energy of the ion-electron system (eV)
  ---------------------------------------------------
  alpha Z        PSCENC =         0.03028135
  Ewald energy   TEWEN  =       193.39772327
  -Hartree energ DENC   =      -326.67229094
  -exchange      EXHF   =         0.00000000
  -V(xc)+E(xc)   XCENC  =        23.22165306
  PAW double counting   =       238.63401330     -239.41441568
  entropy T*S    EENTRO =        -0.00000000
  eigenvalues    EBANDS =      -110.90508839
  atomic energy  EATOM  =       197.04175453
  Solvation  Ediel_sol  =         0.00000000
  ---------------------------------------------------
  free energy    TOTEN  =       -24.66636950 eV

  energy without entropy =      -24.66636950  energy(sigma->0) =      -24.66636950


--------------------------------------------------------------------------------------------------------




----------------------------------------- Iteration    1(   6)  ---------------------------------------


    POTLOK:  cpu time    0.3300: real time    0.3310
    SETDIJ:  cpu time    0.0020: real time    0.0020
    EDDIAG:  cpu time    0.0510: real time    0.0513
  RMM-DIIS:  cpu time    0.3130: real time    0.3130
    ORTHCH:  cpu time    0.0040: real time    0.0036
       DOS:  cpu time    0.0000: real time    0.0002
    CHARGE:  cpu time    0.1360: real time    0.1357
    MIXING:  cpu time    0.0120: real time    0.0127
    --------------------------------------------
      LOOP:  cpu time    0.8499: real time    0.8517

 eigenvalue-minimisations  :    32
 total energy-change (2. order) : 0.4892050E+00  (-0.1328026E+00)
 number of electron       7.9999992 magnetization 
 augmentation part        0.1888465 magnetization 

 Broyden mixing:
  rms(total) = 0.23133E+00    rms(broyden)= 0.23127E+00
  rms(prec ) = 0.24462E+00
  weight for this iteration     100.00

 eigenvalues of (default mixing * dielectric matrix)
  average eigenvalue GAMMA=   1.8480
  1.4681  2.2279

 Free energy of the ion-electron system (eV)
  ---------------------------------------------------
  alpha Z        PSCENC =         0.03028135
  Ewald energy   TEWEN  =       193.39772327
  -Hartree energ DENC   =      -338.29559082
  -exchange      EXHF   =         0.00000000
  -V(xc)+E(xc)   XCENC  =        24.06652608
  PAW double counting   =       363.05766403     -363.87754278
  entropy T*S    EENTRO =        -0.00000000
  eigenvalues    EBANDS =       -99.59798019
  atomic energy  EATOM  =       197.04175453
  Solvation  Ediel_sol  =         0.00000000
  ---------------------------------------------------
  free energy    TOTEN  =       -24.17716453 eV

  energy without entropy =      -24.17716453  energy(sigma->0) =      -24.17716453


--------------------------------------------------------------------------------------------------------




----------------------------------------- Iteration    1(   7)  ---------------------------------------


    POTLOK:  cpu time    0.3329: real time    0.3324
    SETDIJ:  cpu time    0.0020: real time    0.0020
    EDDIAG:  cpu time    0.0500: real time    0.0508
  RMM-DIIS:  cpu time    0.2790: real time    0.2779
    ORTHCH:  cpu time    0.0040: real time    0.0036
       DOS:  cpu time    0.0000: real time    0.0002
    CHARGE:  cpu time    0.1350: real time    0.1350
    MIXING:  cpu time    0.0400: real time    0.0510
    --------------------------------------------
      LOOP:  cpu time    0.8439: real time    0.8550

 eigenvalue-minimisations  :    30
 total energy-change (2. order) : 0.1485197E+00  (-0.1604273E-01)
 number of electron       7.9999992 magnetization 
 augmentation part        0.1872174 magnetization 

 Broyden mixing:
  rms(total) = 0.21667E-01    rms(broyden)= 0.21644E-01
  rms(prec ) = 0.32281E-01
  weight for this iteration     100.00

 eigenvalues of (default mixing * dielectric matrix)
  average eigenvalue GAMMA=   1.5517
  2.2496  0.9843  1.4213

 Free energy of the ion-electron system (eV)
  ---------------------------------------------------
  alpha Z        PSCENC =         0.03028135
  Ewald energy   TEWEN  =       193.39772327
  -Hartree energ DENC   =      -343.96759741
  -exchange      EXHF   =         0.00000000
  -V(xc)+E(xc)   XCENC  =        24.61291918
  PAW double counting   =       474.33953288     -475.12806401
  entropy T*S    EENTRO =        -0.00000000
  eigenvalues    EBANDS =       -94.35519465
  atomic energy  EATOM  =       197.04175453
  Solvation  Ediel_sol  =         0.00000000
  ---------------------------------------------------
  free energy    TOTEN  =       -24.02864487 eV

  energy without entropy =      -24.02864487  energy(sigma->0) =      -24.02864487


--------------------------------------------------------------------------------------------------------




----------------------------------------- Iteration    1(   8)  ---------------------------------------


    POTLOK:  cpu time    0.3310: real time    0.3307
    SETDIJ:  cpu time    0.0020: real time    0.0020
    EDDIAG:  cpu time    0.0510: real time    0.0510
  RMM-DIIS:  cpu time    0.2680: real time    0.2679
    ORTHCH:  cpu time    0.0030: real time    0.0035
       DOS:  cpu time    0.0010: real time    0.0003
    CHARGE:  cpu time    0.1350: real time    0.1354
    MIXING:  cpu time    0.0130: real time    0.0131
    --------------------------------------------
      LOOP:  cpu time    0.8059: real time    0.8638

 eigenvalue-minimisations  :    29
 total energy-change (2. order) : 0.4511913E-02  (-0.1008252E-02)
 number of electron       7.9999992 magnetization 
 augmentation part        0.1866459 magnetization 

 Broyden mixing:
  rms(total) = 0.18056E-01    rms(broyden)= 0.18053E-01
  rms(prec ) = 0.25703E-01
  weight for this iteration     100.00

 eigenvalues of (default mixing * dielectric matrix)
  average eigenvalue GAMMA=   2.1321
  1.0108  1.3820  3.0679  3.0679

 Free energy of the ion-electron system (eV)
  ---------------------------------------------------
  alpha Z        PSCENC =         0.03028135
  Ewald energy   TEWEN  =       193.39772327
  -Hartree energ DENC   =      -345.08539150
  -exchange      EXHF   =         0.00000000
  -V(xc)+E(xc)   XCENC  =        24.67150301
  PAW double counting   =       476.66193611     -477.45286599
  entropy T*S    EENTRO =        -0.00000000
  eigenvalues    EBANDS =       -93.28907373
  atomic energy  EATOM  =       197.04175453
  Solvation  Ediel_sol  =         0.00000000
  ---------------------------------------------------
  free energy    TOTEN  =       -24.02413295 eV

  energy without entropy =      -24.02413295  energy(sigma->0) =      -24.02413295


--------------------------------------------------------------------------------------------------------




----------------------------------------- Iteration    1(   9)  ---------------------------------------


    POTLOK:  cpu time    0.4119: real time    0.4569
    SETDIJ:  cpu time    0.0020: real time    0.0020
    EDDIAG:  cpu time    0.0520: real time    0.0515
  RMM-DIIS:  cpu time    0.2450: real time    0.2451
    ORTHCH:  cpu time    0.0030: real time    0.0035
       DOS:  cpu time    0.0000: real time    0.0002
    CHARGE:  cpu time    0.1360: real time    0.1358
    MIXING:  cpu time    0.0130: real time    0.0135
    --------------------------------------------
      LOOP:  cpu time    0.8659: real time    0.9110

 eigenvalue-minimisations  :    26
 total energy-change (2. order) : 0.6328642E-02  (-0.2324813E-02)
 number of electron       7.9999992 magnetization 
 augmentation part        0.1855903 magnetization 

 Broyden mixing:
  rms(total) = 0.27643E-01    rms(broyden)= 0.27641E-01
  rms(prec ) = 0.29684E-01
  weight for this iteration     100.00

 eigenvalues of (default mixing * dielectric matrix)
  average eigenvalue GAMMA=   1.7757
  3.1076  2.4816  1.1711  1.1711  0.9473

 Free energy of the ion-electron system (eV)
  ---------------------------------------------------
  alpha Z        PSCENC =         0.03028135
  Ewald energy   TEWEN  =       193.39772327
  -Hartree energ DENC   =      -347.37663280
  -exchange      EXHF   =         0.00000000
  -V(xc)+E(xc)   XCENC  =        24.74340804
  PAW double counting   =       461.65996370     -462.45440567
  entropy T*S    EENTRO =        -0.00000000
  eigenvalues    EBANDS =       -91.05989672
  atomic energy  EATOM  =       197.04175453
  Solvation  Ediel_sol  =         0.00000000
  ---------------------------------------------------
  free energy    TOTEN  =       -24.01780431 eV

  energy without entropy =      -24.01780431  energy(sigma->0) =      -24.01780431


--------------------------------------------------------------------------------------------------------




----------------------------------------- Iteration    1(  10)  ---------------------------------------


    POTLOK:  cpu time    0.3369: real time    0.3379
    SETDIJ:  cpu time    0.0020: real time    0.0021
    EDDIAG:  cpu time    0.0520: real time    0.0518
  RMM-DIIS:  cpu time    0.2260: real time    0.2980
    ORTHCH:  cpu time    0.0040: real time    0.0037
       DOS:  cpu time    0.0110: real time    0.0107
    CHARGE:  cpu time    0.1310: real time    0.1309
    MIXING:  cpu time    0.0140: real time    0.0141
    --------------------------------------------
      LOOP:  cpu time    0.7789: real time    0.8517

 eigenvalue-minimisations  :    29
 total energy-change (2. order) : 0.2227727E-03  (-0.1893984E-03)
 number of electron       7.9999992 magnetization 
 augmentation part        0.1856466 magnetization 

 Broyden mixing:
  rms(total) = 0.82253E-02    rms(broyden)= 0.82250E-02
  rms(prec ) = 0.10596E-01
  weight for this iteration     100.00

 eigenvalues of (default mixing * dielectric matrix)
  average eigenvalue GAMMA=   2.2613
  3.9205  3.9205  2.3981  1.3615  0.9835  0.9835

 Free energy of the ion-electron system (eV)
  ---------------------------------------------------
  alpha Z        PSCENC =         0.03028135
  Ewald energy   TEWEN  =       193.39772327
  -Hartree energ DENC   =      -347.35490340
  -exchange      EXHF   =         0.00000000
  -V(xc)+E(xc)   XCENC  =        24.75616756
  PAW double counting   =       468.43949629     -469.22953756
  entropy T*S    EENTRO =        -0.00000000
  eigenvalues    EBANDS =       -91.09856357
  atomic energy  EATOM  =       197.04175453
  Solvation  Ediel_sol  =         0.00000000
  ---------------------------------------------------
  free energy    TOTEN  =       -24.01758154 eV

  energy without entropy =      -24.01758154  energy(sigma->0) =      -24.01758154


--------------------------------------------------------------------------------------------------------




----------------------------------------- Iteration    1(  11)  ---------------------------------------


    POTLOK:  cpu time    0.3369: real time    0.3367
    SETDIJ:  cpu time    0.0020: real time    0.0021
    EDDIAG:  cpu time    0.0520: real time    0.0513
  RMM-DIIS:  cpu time    0.2100: real time    0.2099
    ORTHCH:  cpu time    0.0030: real time    0.0035
       DOS:  cpu time    0.0000: real time    0.0002
    CHARGE:  cpu time    0.1360: real time    0.1354
    MIXING:  cpu time    0.0150: real time    0.0148
    --------------------------------------------
      LOOP:  cpu time    0.7559: real time    0.7770

 eigenvalue-minimisations  :    22
 total energy-change (2. order) :-0.9675178E-02  (-0.1466905E-02)
 number of electron       7.9999992 magnetization 
 augmentation part        0.1862948 magnetization 

 Broyden mixing:
  rms(total) = 0.19864E-01    rms(broyden)= 0.19860E-01
  rms(prec ) = 0.21665E-01
  weight for this iteration     100.00

 eigenvalues of (default mixing * dielectric matrix)
  average eigenvalue GAMMA=   2.0255
  4.7807  3.0304  2.4380  1.2656  0.9973  0.9973  0.6691

 Free energy of the ion-electron system (eV)
  ---------------------------------------------------
  alpha Z        PSCENC =         0.03028135
  Ewald energy   TEWEN  =       193.39772327
  -Hartree energ DENC   =      -347.49004423
  -exchange      EXHF   =         0.00000000
  -V(xc)+E(xc)   XCENC  =        24.75054578
  PAW double counting   =       468.61415714     -469.39748140
  entropy T*S    EENTRO =        -0.00000000
  eigenvalues    EBANDS =       -90.97419316
  atomic energy  EATOM  =       197.04175453
  Solvation  Ediel_sol  =         0.00000000
  ---------------------------------------------------
  free energy    TOTEN  =       -24.02725672 eV

  energy without entropy =      -24.02725672  energy(sigma->0) =      -24.02725672


--------------------------------------------------------------------------------------------------------




----------------------------------------- Iteration    1(  12)  ---------------------------------------


    POTLOK:  cpu time    0.3879: real time    0.4118
    SETDIJ:  cpu time    0.0020: real time    0.0021
    EDDIAG:  cpu time    0.0510: real time    0.0511
  RMM-DIIS:  cpu time    0.2670: real time    0.2662
    ORTHCH:  cpu time    0.0040: real time    0.0034
       DOS:  cpu time    0.0000: real time    0.0002
    CHARGE:  cpu time    0.1350: real time    0.1349
    MIXING:  cpu time    0.0150: real time    0.0151
    --------------------------------------------
      LOOP:  cpu time    0.8629: real time    0.9054

 eigenvalue-minimisations  :    29
 total energy-change (2. order) : 0.9409887E-03  (-0.1204269E-03)
 number of electron       7.9999992 magnetization 
 augmentation part        0.1860819 magnetization 

 Broyden mixing:
  rms(total) = 0.11098E-01    rms(broyden)= 0.11098E-01
  rms(prec ) = 0.12097E-01
  weight for this iteration     100.00

 eigenvalues of (default mixing * dielectric matrix)
  average eigenvalue GAMMA=   2.1319
  5.2693  3.1408  2.5511  1.5089  1.3529  1.3529  0.9748  0.9042

 Free energy of the ion-electron system (eV)
  ---------------------------------------------------
  alpha Z        PSCENC =         0.03028135
  Ewald energy   TEWEN  =       193.39772327
  -Hartree energ DENC   =      -347.83132679
  -exchange      EXHF   =         0.00000000
  -V(xc)+E(xc)   XCENC  =        24.76364231
  PAW double counting   =       468.38245023     -469.16895853
  entropy T*S    EENTRO =        -0.00000000
  eigenvalues    EBANDS =       -90.64188210
  atomic energy  EATOM  =       197.04175453
  Solvation  Ediel_sol  =         0.00000000
  ---------------------------------------------------
  free energy    TOTEN  =       -24.02631573 eV

  energy without entropy =      -24.02631573  energy(sigma->0) =      -24.02631573


--------------------------------------------------------------------------------------------------------




----------------------------------------- Iteration    1(  13)  ---------------------------------------


    POTLOK:  cpu time    0.3979: real time    0.3983
    SETDIJ:  cpu time    0.0120: real time    0.0114
    EDDIAG:  cpu time    0.0560: real time    0.0567
  RMM-DIIS:  cpu time    0.2080: real time    0.2067
    ORTHCH:  cpu time    0.0030: real time    0.0035
       DOS:  cpu time    0.0000: real time    0.0002
    CHARGE:  cpu time    0.1360: real time    0.1361
    MIXING:  cpu time    0.0160: real time    0.0161
    --------------------------------------------
      LOOP:  cpu time    0.8309: real time    0.8414

 eigenvalue-minimisations  :    22
 total energy-change (2. order) :-0.2954340E-02  (-0.7659375E-03)
 number of electron       7.9999992 magnetization 
 augmentation part        0.1854846 magnetization 

 Broyden mixing:
  rms(total) = 0.81707E-02    rms(broyden)= 0.81658E-02
  rms(prec ) = 0.90291E-02
  weight for this iteration     100.00

 eigenvalues of (default mixing * dielectric matrix)
  average eigenvalue GAMMA=   2.2838
  6.4728  4.1700  2.4291  2.4291  1.2164  1.2164  0.9972  0.8115  0.8115

 Free energy of the ion-electron system (eV)
  ---------------------------------------------------
  alpha Z        PSCENC =         0.03028135
  Ewald energy   TEWEN  =       193.39772327
  -Hartree energ DENC   =      -348.22973167
  -exchange      EXHF   =         0.00000000
  -V(xc)+E(xc)   XCENC  =        24.77099586
  PAW double counting   =       467.79673778     -468.58826573
  entropy T*S    EENTRO =        -0.00000000
  eigenvalues    EBANDS =       -90.24876546
  atomic energy  EATOM  =       197.04175453
  Solvation  Ediel_sol  =         0.00000000
  ---------------------------------------------------
  free energy    TOTEN  =       -24.02927007 eV

  energy without entropy =      -24.02927007  energy(sigma->0) =      -24.02927007


--------------------------------------------------------------------------------------------------------




----------------------------------------- Iteration    1(  14)  ---------------------------------------


    POTLOK:  cpu time    0.3429: real time    0.3427
    SETDIJ:  cpu time    0.0020: real time    0.0020
    EDDIAG:  cpu time    0.0520: real time    0.0518
  RMM-DIIS:  cpu time    0.2090: real time    0.2095
    ORTHCH:  cpu time    0.0040: real time    0.0035
       DOS:  cpu time    0.0000: real time    0.0002
    CHARGE:  cpu time    0.2150: real time    0.2153
    MIXING:  cpu time    0.0160: real time    0.0165
    --------------------------------------------
      LOOP:  cpu time    0.8419: real time    0.8434

 eigenvalue-minimisations  :    22
 total energy-change (2. order) :-0.5748698E-03  (-0.4516072E-04)
 number of electron       7.9999992 magnetization 
 augmentation part        0.1855012 magnetization 

 Broyden mixing:
  rms(total) = 0.56218E-02    rms(broyden)= 0.56215E-02
  rms(prec ) = 0.61260E-02
  weight for this iteration     100.00

 eigenvalues of (default mixing * dielectric matrix)
  average eigenvalue GAMMA=   2.3235
  6.6886  4.3323  2.9902  2.4267  1.2854  1.2854  1.4097  0.8883  0.9642  0.9642

 Free energy of the ion-electron system (eV)
  ---------------------------------------------------
  alpha Z        PSCENC =         0.03028135
  Ewald energy   TEWEN  =       193.39772327
  -Hartree energ DENC   =      -348.08013961
  -exchange      EXHF   =         0.00000000
  -V(xc)+E(xc)   XCENC  =        24.76050928
  PAW double counting   =       467.58663430     -468.37682463
  entropy T*S    EENTRO =        -0.00000000
  eigenvalues    EBANDS =       -90.38978343
  atomic energy  EATOM  =       197.04175453
  Solvation  Ediel_sol  =         0.00000000
  ---------------------------------------------------
  free energy    TOTEN  =       -24.02984494 eV

  energy without entropy =      -24.02984494  energy(sigma->0) =      -24.02984494


--------------------------------------------------------------------------------------------------------




----------------------------------------- Iteration    1(  15)  ---------------------------------------


    POTLOK:  cpu time    0.3429: real time    0.3434
    SETDIJ:  cpu time    0.0020: real time    0.0021
    EDDIAG:  cpu time    0.0510: real time    0.0507
  RMM-DIIS:  cpu time    0.2010: real time    0.2007
    ORTHCH:  cpu time    0.0030: real time    0.0035
       DOS:  cpu time    0.0010: real time    0.0002
    CHARGE:  cpu time    0.1340: real time    0.1348
    MIXING:  cpu time    0.0180: real time    0.0173
    --------------------------------------------
      LOOP:  cpu time    0.7549: real time    0.7547

 eigenvalue-minimisations  :    21
 total energy-change (2. order) :-0.4390638E-03  (-0.1096697E-03)
 number of electron       7.9999992 magnetization 
 augmentation part        0.1857475 magnetization 

 Broyden mixing:
  rms(total) = 0.18082E-02    rms(broyden)= 0.18054E-02
  rms(prec ) = 0.20021E-02
  weight for this iteration     100.00

 eigenvalues of (default mixing * dielectric matrix)
  average eigenvalue GAMMA=   2.4600
  7.4268  5.1114  3.3999  2.4364  2.4364  1.2366  1.2366  0.9922  0.8640  0.9601
  0.9601

 Free energy of the ion-electron system (eV)
  ---------------------------------------------------
  alpha Z        PSCENC =         0.03028135
  Ewald energy   TEWEN  =       193.39772327
  -Hartree energ DENC   =      -347.96739161
  -exchange      EXHF   =         0.00000000
  -V(xc)+E(xc)   XCENC  =        24.75555637
  PAW double counting   =       467.91261082     -468.70068161
  entropy T*S    EENTRO =        -0.00000000
  eigenvalues    EBANDS =       -90.50013712
  atomic energy  EATOM  =       197.04175453
  Solvation  Ediel_sol  =         0.00000000
  ---------------------------------------------------
  free energy    TOTEN  =       -24.03028400 eV

  energy without entropy =      -24.03028400  energy(sigma->0) =      -24.03028400


--------------------------------------------------------------------------------------------------------




----------------------------------------- Iteration    1(  16)  ---------------------------------------


    POTLOK:  cpu time    0.4069: real time    0.4065
    SETDIJ:  cpu time    0.0010: real time    0.0021
    EDDIAG:  cpu time    0.0520: real time    0.0513
  RMM-DIIS:  cpu time    0.2370: real time    0.2375
    ORTHCH:  cpu time    0.0040: real time    0.0036
       DOS:  cpu time    0.0000: real time    0.0002
    CHARGE:  cpu time    0.1470: real time    0.1469
    MIXING:  cpu time    0.0180: real time    0.0178
    --------------------------------------------
      LOOP:  cpu time    0.8679: real time    0.8679

 eigenvalue-minimisations  :    25
 total energy-change (2. order) :-0.1072359E-03  (-0.2295951E-05)
 number of electron       7.9999992 magnetization 
 augmentation part        0.1857529 magnetization 

 Broyden mixing:
  rms(total) = 0.18891E-02    rms(broyden)= 0.18888E-02
  rms(prec ) = 0.20709E-02
  weight for this iteration     100.00

 eigenvalues of (default mixing * dielectric matrix)
  average eigenvalue GAMMA=   2.4811
  7.8235  5.2048  3.3666  2.6172  2.1511  2.1511  1.3210  1.3210  0.9826  0.9826
  0.9902  0.8615

 Free energy of the ion-electron system (eV)
  ---------------------------------------------------
  alpha Z        PSCENC =         0.03028135
  Ewald energy   TEWEN  =       193.39772327
  -Hartree energ DENC   =      -347.99099558
  -exchange      EXHF   =         0.00000000
  -V(xc)+E(xc)   XCENC  =        24.75699056
  PAW double counting   =       468.08608942     -468.87426339
  entropy T*S    EENTRO =        -0.00000000
  eigenvalues    EBANDS =       -90.47797139
  atomic energy  EATOM  =       197.04175453
  Solvation  Ediel_sol  =         0.00000000
  ---------------------------------------------------
  free energy    TOTEN  =       -24.03039124 eV

  energy without entropy =      -24.03039124  energy(sigma->0) =      -24.03039124


--------------------------------------------------------------------------------------------------------




----------------------------------------- Iteration    1(  17)  ---------------------------------------


    POTLOK:  cpu time    0.3409: real time    0.3419
    SETDIJ:  cpu time    0.0020: real time    0.0021
    EDDIAG:  cpu time    0.0520: real time    0.0512
  RMM-DIIS:  cpu time    0.2200: real time    0.2200
    ORTHCH:  cpu time    0.0880: real time    0.0886
       DOS:  cpu time    0.0000: real time    0.0001
    CHARGE:  cpu time    0.1630: real time    0.1623
    MIXING:  cpu time    0.0180: real time    0.0185
    --------------------------------------------
      LOOP:  cpu time    0.8859: real time    0.8867

 eigenvalue-minimisations  :    19
 total energy-change (2. order) :-0.9577970E-04  (-0.2746273E-06)
 number of electron       7.9999992 magnetization 
 augmentation part        0.1857486 magnetization 

 Broyden mixing:
  rms(total) = 0.15808E-02    rms(broyden)= 0.15808E-02
  rms(prec ) = 0.17298E-02
  weight for this iteration     100.00

 eigenvalues of (default mixing * dielectric matrix)
  average eigenvalue GAMMA=   2.5456
  8.5674  5.1843  4.5086  2.8487  2.4721  2.0074  1.3202  1.3202  1.0234  1.0234
  0.8695  0.9739  0.9739

 Free energy of the ion-electron system (eV)
  ---------------------------------------------------
  alpha Z        PSCENC =         0.03028135
  Ewald energy   TEWEN  =       193.39772327
  -Hartree energ DENC   =      -348.00752664
  -exchange      EXHF   =         0.00000000
  -V(xc)+E(xc)   XCENC  =        24.75736578
  PAW double counting   =       467.87893773     -468.66726355
  entropy T*S    EENTRO =        -0.00000000
  eigenvalues    EBANDS =       -90.46175948
  atomic energy  EATOM  =       197.04175453
  Solvation  Ediel_sol  =         0.00000000
  ---------------------------------------------------
  free energy    TOTEN  =       -24.03048702 eV

  energy without entropy =      -24.03048702  energy(sigma->0) =      -24.03048702


--------------------------------------------------------------------------------------------------------




----------------------------------------- Iteration    1(  18)  ---------------------------------------


    POTLOK:  cpu time    0.3399: real time    0.3396
    SETDIJ:  cpu time    0.0020: real time    0.0021
    EDDIAG:  cpu time    0.0510: real time    0.0508
  RMM-DIIS:  cpu time    0.2200: real time    0.2206
    ORTHCH:  cpu time    0.0040: real time    0.0035
       DOS:  cpu time    0.0000: real time    0.0002
    CHARGE:  cpu time    0.1360: real time    0.1361
    MIXING:  cpu time    0.0200: real time    0.0197
    --------------------------------------------
      LOOP:  cpu time    0.7739: real time    0.7745

 eigenvalue-minimisations  :    23
 total energy-change (2. order) :-0.4814305E-04  (-0.1210227E-04)
 number of electron       7.9999992 magnetization 
 augmentation part        0.1856658 magnetization 

 Broyden mixing:
  rms(total) = 0.84071E-03    rms(broyden)= 0.83996E-03
  rms(prec ) = 0.92493E-03
  weight for this iteration     100.00

 eigenvalues of (default mixing * dielectric matrix)
  average eigenvalue GAMMA=   2.7257
  8.8426  6.5644  4.0642  4.0642  2.7484  2.4201  2.0072  1.3364  1.3364  0.9731
  0.9731  1.0037  0.8702  0.9551

 Free energy of the ion-electron system (eV)
  ---------------------------------------------------
  alpha Z        PSCENC =         0.03028135
  Ewald energy   TEWEN  =       193.39772327
  -Hartree energ DENC   =      -348.06561484
  -exchange      EXHF   =         0.00000000
  -V(xc)+E(xc)   XCENC  =        24.75956142
  PAW double counting   =       467.76029901     -468.54933986
  entropy T*S    EENTRO =        -0.00000000
  eigenvalues    EBANDS =       -90.40520004
  atomic energy  EATOM  =       197.04175453
  Solvation  Ediel_sol  =         0.00000000
  ---------------------------------------------------
  free energy    TOTEN  =       -24.03053516 eV

  energy without entropy =      -24.03053516  energy(sigma->0) =      -24.03053516


--------------------------------------------------------------------------------------------------------




----------------------------------------- Iteration    1(  19)  ---------------------------------------


    POTLOK:  cpu time    0.4049: real time    0.4048
    SETDIJ:  cpu time    0.0030: real time    0.0021
    EDDIAG:  cpu time    0.0510: real time    0.0511
  RMM-DIIS:  cpu time    0.2640: real time    0.2639
    ORTHCH:  cpu time    0.0030: real time    0.0036
       DOS:  cpu time    0.0010: real time    0.0002
    CHARGE:  cpu time    0.1350: real time    0.1358
    MIXING:  cpu time    0.0210: real time    0.0204
    --------------------------------------------
      LOOP:  cpu time    0.8839: real time    0.8839

 eigenvalue-minimisations  :    27
 total energy-change (2. order) :-0.1290479E-04  (-0.1524394E-06)
 number of electron       7.9999992 magnetization 
 augmentation part        0.1856701 magnetization 

 Broyden mixing:
  rms(total) = 0.50070E-03    rms(broyden)= 0.50065E-03
  rms(prec ) = 0.55048E-03
  weight for this iteration     100.00

 eigenvalues of (default mixing * dielectric matrix)
  average eigenvalue GAMMA=   2.6226
  9.0881  6.6449  4.1293  4.1293  2.7179  2.4108  1.9692  1.3443  1.3443  0.9770
  0.9770  1.0049  1.0049  0.8690  0.7283

 Free energy of the ion-electron system (eV)
  ---------------------------------------------------
  alpha Z        PSCENC =         0.03028135
  Ewald energy   TEWEN  =       193.39772327
  -Hartree energ DENC   =      -348.05023652
  -exchange      EXHF   =         0.00000000
  -V(xc)+E(xc)   XCENC  =        24.75882604
  PAW double counting   =       467.80803409     -468.59690133
  entropy T*S    EENTRO =        -0.00000000
  eigenvalues    EBANDS =       -90.42002949
  atomic energy  EATOM  =       197.04175453
  Solvation  Ediel_sol  =         0.00000000
  ---------------------------------------------------
  free energy    TOTEN  =       -24.03054807 eV

  energy without entropy =      -24.03054807  energy(sigma->0) =      -24.03054807


--------------------------------------------------------------------------------------------------------




----------------------------------------- Iteration    1(  20)  ---------------------------------------


    POTLOK:  cpu time    0.3449: real time    0.3451
    SETDIJ:  cpu time    0.0020: real time    0.0020
    EDDIAG:  cpu time    0.0520: real time    0.0514
  RMM-DIIS:  cpu time    0.2420: real time    0.2420
    ORTHCH:  cpu time    0.0030: real time    0.0037
       DOS:  cpu time    0.0010: real time    0.0002
    CHARGE:  cpu time    0.1370: real time    0.1359
    MIXING:  cpu time    0.0210: real time    0.0214
    --------------------------------------------
      LOOP:  cpu time    0.8039: real time    0.8041

 eigenvalue-minimisations  :    24
 total energy-change (2. order) :-0.1633213E-04  (-0.1804180E-05)
 number of electron       7.9999992 magnetization 
 augmentation part        0.1857026 magnetization 

 Broyden mixing:
  rms(total) = 0.38030E-03    rms(broyden)= 0.38010E-03
  rms(prec ) = 0.41655E-03
  weight for this iteration     100.00

 eigenvalues of (default mixing * dielectric matrix)
  average eigenvalue GAMMA=   2.5784
  9.2421  6.5732  4.7133  3.5498  2.4586  2.4586  1.9343  1.9343  1.3402  1.3402
  0.9524  0.9524  1.0432  1.0268  0.8675  0.8675

 Free energy of the ion-electron system (eV)
  ---------------------------------------------------
  alpha Z        PSCENC =         0.03028135
  Ewald energy   TEWEN  =       193.39772327
  -Hartree energ DENC   =      -348.03140837
  -exchange      EXHF   =         0.00000000
  -V(xc)+E(xc)   XCENC  =        24.75797854
  PAW double counting   =       467.88084150     -468.66945922
  entropy T*S    EENTRO =        -0.00000000
  eigenvalues    EBANDS =       -90.43827599
  atomic energy  EATOM  =       197.04175453
  Solvation  Ediel_sol  =         0.00000000
  ---------------------------------------------------
  free energy    TOTEN  =       -24.03056440 eV

  energy without entropy =      -24.03056440  energy(sigma->0) =      -24.03056440


--------------------------------------------------------------------------------------------------------




----------------------------------------- Iteration    1(  21)  ---------------------------------------


    POTLOK:  cpu time    0.3479: real time    0.3480
    SETDIJ:  cpu time    0.0020: real time    0.0021
    EDDIAG:  cpu time    0.0510: real time    0.0511
  RMM-DIIS:  cpu time    0.2680: real time    0.2680
    ORTHCH:  cpu time    0.0040: real time    0.0035
       DOS:  cpu time    0.0000: real time    0.0001
    --------------------------------------------
      LOOP:  cpu time    0.6739: real time    0.6749

 eigenvalue-minimisations  :    27
 total energy-change (2. order) :-0.4765288E-06  (-0.1073744E-06)
 number of electron       7.9999992 magnetization 
 augmentation part        0.1857026 magnetization 

 Free energy of the ion-electron system (eV)
  ---------------------------------------------------
  alpha Z        PSCENC =         0.03028135
  Ewald energy   TEWEN  =       193.39772327
  -Hartree energ DENC   =      -348.03986977
  -exchange      EXHF   =         0.00000000
  -V(xc)+E(xc)   XCENC  =        24.75827599
  PAW double counting   =       467.84483189     -468.63356897
  entropy T*S    EENTRO =        -0.00000000
  eigenvalues    EBANDS =       -90.42999316
  atomic energy  EATOM  =       197.04175453
  Solvation  Ediel_sol  =         0.00000000
  ---------------------------------------------------
  free energy    TOTEN  =       -24.03056487 eV

  energy without entropy =      -24.03056487  energy(sigma->0) =      -24.03056487


--------------------------------------------------------------------------------------------------------




 average (electrostatic) potential at core
  the test charge radii are     0.6991  0.5201
  (the norm of the test charge is              1.0000)
       1 -58.0625       2 -41.5990       3 -41.5990       4 -41.6040       5 -41.6462
 
 
 
 E-fermi :  -6.8578     XC(G=0):  -0.1314     alpha+bet : -0.0263


 k-point     1 :       0.0000    0.0000    0.0000
  band No.  band energies     occupation 
      1     -17.0044      2.00000
      2      -9.4285      2.00000
      3      -9.3968      2.00000
      4      -9.3853      2.00000
      5      -0.4140      0.00000
      6       0.0473      0.00000
      7       0.2863      0.00000
      8       0.2867      0.00000
      9       0.2868      0.00000
     10       0.3250      0.00000


--------------------------------------------------------------------------------------------------------


 soft charge-density along one line, spin component           1
         0         1         2         3         4         5         6         7         8         9
 total charge-density along one line
 
 pseudopotential strength for first ion, spin component:           1
 10.210  13.577   0.000  -0.000  -0.000  -0.000   0.000   0.000
 13.577  18.054   0.000  -0.000  -0.000  -0.000   0.000   0.000
  0.000   0.000  -4.338   0.000   0.000   8.488  -0.000  -0.000
 -0.000  -0.000   0.000  -4.338  -0.000  -0.000   8.488   0.000
 -0.000  -0.000   0.000  -0.000  -4.338  -0.000   0.000   8.488
 -0.000  -0.000   8.488  -0.000  -0.000 -18.744   0.000   0.000
  0.000   0.000  -0.000   8.488   0.000   0.000 -18.744  -0.000
  0.000   0.000  -0.000   0.000   8.488   0.000  -0.000 -18.744
 total augmentation occupancy for first ion, spin component:           1
  7.595  -3.239   0.007  -0.003  -0.007   0.001  -0.000  -0.001
 -3.239   1.381  -0.004   0.001   0.004  -0.000   0.000   0.000
  0.007  -0.004   1.637  -0.003  -0.003   0.138  -0.000  -0.000
 -0.003   0.001  -0.003   1.635   0.003  -0.000   0.138   0.000
 -0.007   0.004  -0.003   0.003   1.637  -0.000   0.000   0.138
  0.001  -0.000   0.138  -0.000  -0.000   0.012  -0.000  -0.000
 -0.000   0.000  -0.000   0.138   0.000  -0.000   0.012   0.000
 -0.001   0.000  -0.000   0.000   0.138  -0.000   0.000   0.012


------------------------ aborting loop because EDIFF is reached ----------------------------------------


    CHARGE:  cpu time    0.1400: real time    0.1400
    FORLOC:  cpu time    0.0220: real time    0.0221
    FORNL :  cpu time    0.1070: real time    0.1053
    STRESS:  cpu time    0.2980: real time    0.2978
    FORCOR:  cpu time    0.3539: real time    0.3544
    FORHAR:  cpu time    0.1060: real time    0.1059
    MIXING:  cpu time    0.0230: real time    0.0225
    OFIELD:  cpu time    0.0000: real time    0.0000

  FORCE on cell =-STRESS in cart. coord.  units (eV):
  Direction    XX          YY          ZZ          XY          YZ          ZX
  --------------------------------------------------------------------------------------
  Alpha Z     0.03028     0.03028     0.03028
  Ewald      64.67848    64.67848    64.04076    -0.27765     0.01834    -0.01834
  Hartree   116.07581   116.07581   115.89576    -0.02166     0.05305    -0.05305
  E(xc)     -27.22726   -27.22726   -27.23068    -0.00047     0.00099    -0.00099
  Local    -239.24882  -239.24882  -238.54256     0.21092    -0.10394     0.10394
  n-local   -15.92084   -15.92084   -15.92201     0.00498     0.00848    -0.00848
  augment     0.11419     0.11419     0.11483     0.00082     0.00046    -0.00045
  Kinetic   101.19010   101.19010   101.35610     0.02836    -0.05467     0.05467
  Fock        0.00000     0.00000     0.00000     0.00000     0.00000     0.00000
  -------------------------------------------------------------------------------------
  Total      -0.30806    -0.30806    -0.25753    -0.05470    -0.07731     0.07731
  in kB      -0.06170    -0.06170    -0.05158    -0.01095    -0.01548     0.01548
  external pressure =       -0.06 kB  Pullay stress =        0.00 kB


 VOLUME and BASIS-vectors are now :
 -----------------------------------------------------------------------------
  energy-cutoff  :      400.00
  volume of cell :     8000.00
      direct lattice vectors                 reciprocal lattice vectors
    20.000000000  0.000000000  0.000000000     0.050000000  0.000000000  0.000000000
     0.000000000 20.000000000  0.000000000     0.000000000  0.050000000  0.000000000
     0.000000000  0.000000000 20.000000000     0.000000000  0.000000000  0.050000000

  length of vectors
    20.000000000 20.000000000 20.000000000     0.050000000  0.050000000  0.050000000


 FORCES acting on ions
    electron-ion (+dipol)            ewald-force                    non-local-force                 convergence-correction
 -----------------------------------------------------------------------------------------------
   -.374E+00 0.374E+00 0.427E-01   0.439E+00 -.439E+00 -.436E-02   0.229E-01 -.229E-01 0.872E-01   0.834E-05 -.834E-05 0.471E-04
   -.308E+02 -.308E+02 -.308E+02   0.340E+02 0.339E+02 0.340E+02   -.317E+01 -.317E+01 -.317E+01   0.417E-03 0.415E-03 0.423E-03
   0.308E+02 0.308E+02 -.308E+02   -.339E+02 -.340E+02 0.340E+02   0.317E+01 0.317E+01 -.317E+01   -.415E-03 -.417E-03 0.423E-03
   -.308E+02 0.308E+02 0.308E+02   0.339E+02 -.339E+02 -.340E+02   -.318E+01 0.318E+01 0.317E+01   0.420E-03 -.420E-03 -.413E-03
   0.311E+02 -.311E+02 0.306E+02   -.344E+02 0.344E+02 -.339E+02   0.324E+01 -.324E+01 0.318E+01   -.424E-03 0.424E-03 -.412E-03
 -----------------------------------------------------------------------------------------------
   -.931E-01 0.931E-01 -.973E-01   0.000E+00 0.000E+00 0.000E+00   0.932E-01 -.932E-01 0.970E-01   0.679E-05 -.679E-05 0.677E-04
 
 
 POSITION                                       TOTAL-FORCE (eV/Angst)
 -----------------------------------------------------------------------------------
     10.00000     10.00000     10.00000         0.087515     -0.087515      0.125680
     10.63328     10.63328     10.63328         0.009431     -0.009273      0.011298
      9.36672      9.36672     10.63328         0.009273     -0.009431      0.011298
     10.63328      9.36672      9.36672        -0.009367      0.009367     -0.012336
      9.36672     10.63328      9.37672        -0.096852      0.096852     -0.135940
 -----------------------------------------------------------------------------------
    total drift:                                0.000079     -0.000079     -0.000192


--------------------------------------------------------------------------------------------------------



  FREE ENERGIE OF THE ION-ELECTRON SYSTEM (eV)
  ---------------------------------------------------
  free  energy   TOTEN  =       -24.03056487 eV

  energy  without entropy=      -24.03056487  energy(sigma->0) =      -24.03056487
 


--------------------------------------------------------------------------------------------------------


    POTLOK:  cpu time    0.3509: real time    0.3498


--------------------------------------------------------------------------------------------------------


 stress matrix after NEB project (eV)
     -0.30806     -0.05470      0.07731
     -0.05470     -0.30806     -0.07731
      0.07731     -0.07731     -0.25753
  FORCES: max atom, RMS     0.192978    0.117717
  FORCE total and by dimension    0.263224    0.135940
  Stress total and by dimension    0.534805    0.308064
     LOOP+:  cpu time   17.9023: real time   18.2731
    4ORBIT:  cpu time    0.0000: real time    0.0000

 total amount of memory used by VASP on root node    82974. kBytes
========================================================================

   base      :      30000. kBytes
   nonlr-proj:        154. kBytes
   fftplans  :      20340. kBytes
   grid      :      31312. kBytes
   one-center:          6. kBytes
   wavefun   :       1162. kBytes
 
  
  
 General timing and accounting informations for this job:
 ========================================================
  
                  Total CPU time used (sec):       19.888
                            User time (sec):       18.596
                          System time (sec):        1.292
                         Elapsed time (sec):       20.559
  
                   Maximum memory used (kb):      163232.
                   Average memory used (kb):           0.
  
                          Minor page faults:       135303
                          Major page faults:            7
                 Voluntary context switches:         1315
