 vasp.5.4.1 24Jun15 (build Oct 10 2016 12:42:00) complex                        
  
 executed on           IFC91_ompi date 2018.06.30  20:33:11
 running on   20 total cores
 distrk:  each k-point on   20 cores,    1 groups
 distr:  one band on NCORES_PER_BAND=   4 cores,    5 groups


--------------------------------------------------------------------------------------------------------


 INCAR:
 POTCAR:    PAW_PBE Pt 04Feb2005                  
 POTCAR:    PAW_PBE C 08Apr2002                   
 POTCAR:    PAW_PBE H 15Jun2001                   
 POTCAR:    PAW_PBE Pt 04Feb2005                  
   VRHFIN =Pt: s1d9                                                             
   LEXCH  = PE                                                                  
   EATOM  =   729.1176 eV,   53.5886 Ry                                         
                                                                                
   TITEL  = PAW_PBE Pt 04Feb2005                                                
   LULTRA =        F    use ultrasoft PP ?                                      
   IUNSCR =        1    unscreen: 0-lin 1-nonlin 2-no                           
   RPACOR =    2.330    partial core radius                                     
   POMASS =  195.080; ZVAL   =   10.000    mass and valenz                      
   RCORE  =    2.600    outmost cutoff radius                                   
   RWIGS  =    2.750; RWIGS  =    1.455    wigner-seitz radius (au A)           
   ENMAX  =  230.283; ENMIN  =  172.712 eV                                      
   ICORE  =        3    local potential                                         
   LCOR   =        T    correct aug charges                                     
   LPAW   =        T    paw PP                                                  
   EAUG   =  358.966                                                            
   DEXC   =    0.000                                                            
   RMAX   =    2.658    core radius for proj-oper                               
   RAUG   =    1.300    factor for augmentation sphere                          
   RDEP   =    2.761    radius for radial grids                                 
   RDEPT  =    2.203    core radius for aug-charge                              
                                                                                
   Atomic configuration                                                         
   16 entries                                                                   
     n  l   j            E        occ.                                          
     1  0  0.50    -78401.1885   2.0000                                         
     2  0  0.50    -13770.7750   2.0000                                         
     2  1  1.50    -11931.0468   6.0000                                         
     3  0  0.50     -3234.7234   2.0000                                         
     3  1  1.50     -2699.2216   6.0000                                         
     3  2  2.50     -2119.5714  10.0000                                         
     4  0  0.50      -695.1528   2.0000                                         
     4  1  1.50      -519.6034   6.0000                                         
     4  2  2.50      -306.6786  10.0000                                         
     4  3  3.50       -70.1041  14.0000                                         
     5  0  0.50      -101.7747   2.0000                                         
     5  1  1.50       -55.9873   6.0000                                         
     5  2  2.50        -6.1423   9.0000                                         
     6  0  0.50        -5.6573   1.0000                                         
     6  1  1.50        -6.8029   0.0000                                         
     5  3  2.50        -1.3606   0.0000                                         
   Description                                                                  
     l       E           TYP  RCUT    TYP  RCUT                                 
     2     -6.1423404     23  2.500                                             
     2     -7.5029230     23  2.500                                             
     0     -5.6573207     23  2.500                                             
     0      0.7416693     23  2.500                                             
     1     -2.7211652     23  2.600                                             
     1     20.4087390     23  2.600                                             
     3     -1.3605826     23  2.500                                             
  local pseudopotential read in
  partial core-charges read in
  partial kinetic energy density read in
  atomic valenz-charges read in
  non local Contribution for L=           2  read in
    real space projection operators read in
  non local Contribution for L=           2  read in
    real space projection operators read in
  non local Contribution for L=           0  read in
    real space projection operators read in
  non local Contribution for L=           0  read in
    real space projection operators read in
  non local Contribution for L=           1  read in
    real space projection operators read in
  non local Contribution for L=           1  read in
    real space projection operators read in
    PAW grid and wavefunctions read in
 
   number of l-projection  operators is LMAX  =           6
   number of lm-projection operators is LMMAX =          18
 
 POTCAR:    PAW_PBE C 08Apr2002                   
   VRHFIN =C: s2p2                                                              
   LEXCH  = PE                                                                  
   EATOM  =   147.1560 eV,   10.8157 Ry                                         
                                                                                
   TITEL  = PAW_PBE C 08Apr2002                                                 
   LULTRA =        F    use ultrasoft PP ?                                      
   IUNSCR =        1    unscreen: 0-lin 1-nonlin 2-no                           
   RPACOR =    1.200    partial core radius                                     
   POMASS =   12.011; ZVAL   =    4.000    mass and valenz                      
   RCORE  =    1.500    outmost cutoff radius                                   
   RWIGS  =    1.630; RWIGS  =    0.863    wigner-seitz radius (au A)           
   ENMAX  =  400.000; ENMIN  =  300.000 eV                                      
   ICORE  =        2    local potential                                         
   LCOR   =        T    correct aug charges                                     
   LPAW   =        T    paw PP                                                  
   EAUG   =  644.873                                                            
   DEXC   =    0.000                                                            
   RMAX   =    1.529    core radius for proj-oper                               
   RAUG   =    1.300    factor for augmentation sphere                          
   RDEP   =    1.501    radius for radial grids                                 
   RDEPT  =    1.300    core radius for aug-charge                              
                                                                                
   Atomic configuration                                                         
    4 entries                                                                   
     n  l   j            E        occ.                                          
     1  0  0.50      -273.3789   2.0000                                         
     2  0  0.50       -13.7508   2.0000                                         
     2  1  0.50        -5.2854   2.0000                                         
     3  2  1.50        -5.4423   0.0000                                         
   Description                                                                  
     l       E           TYP  RCUT    TYP  RCUT                                 
     0    -13.7508458     23  1.200                                             
     0     -8.2022199     23  1.200                                             
     1     -5.2854383     23  1.500                                             
     1     34.0145650     23  1.500                                             
     2     -5.4423304      7  1.500                                             
  local pseudopotential read in
  partial core-charges read in
  partial kinetic energy density read in
  atomic valenz-charges read in
  non local Contribution for L=           0  read in
    real space projection operators read in
  non local Contribution for L=           0  read in
    real space projection operators read in
  non local Contribution for L=           1  read in
    real space projection operators read in
  non local Contribution for L=           1  read in
    real space projection operators read in
    PAW grid and wavefunctions read in
 
   number of l-projection  operators is LMAX  =           4
   number of lm-projection operators is LMMAX =           8
 
 POTCAR:    PAW_PBE H 15Jun2001                   
   VRHFIN =H: ultrasoft test                                                    
   LEXCH  = PE                                                                  
   EATOM  =    12.4884 eV,    0.9179 Ry                                         
                                                                                
   TITEL  = PAW_PBE H 15Jun2001                                                 
   LULTRA =        F    use ultrasoft PP ?                                      
   IUNSCR =        0    unscreen: 0-lin 1-nonlin 2-no                           
   RPACOR =    0.000    partial core radius                                     
   POMASS =    1.000; ZVAL   =    1.000    mass and valenz                      
   RCORE  =    1.100    outmost cutoff radius                                   
   RWIGS  =    0.700; RWIGS  =    0.370    wigner-seitz radius (au A)           
   ENMAX  =  250.000; ENMIN  =  200.000 eV                                      
   RCLOC  =    0.701    cutoff for local pot                                    
   LCOR   =        T    correct aug charges                                     
   LPAW   =        T    paw PP                                                  
   EAUG   =  400.000                                                            
   RMAX   =    1.123    core radius for proj-oper                               
   RAUG   =    1.200    factor for augmentation sphere                          
   RDEP   =    1.112    radius for radial grids                                 
   RDEPT  =    0.926    core radius for aug-charge                              
                                                                                
   Atomic configuration                                                         
    2 entries                                                                   
     n  l   j            E        occ.                                          
     1  0  0.50        -6.4927   1.0000                                         
     2  1  0.50        -3.4015   0.0000                                         
   Description                                                                  
     l       E           TYP  RCUT    TYP  RCUT                                 
     0     -6.4927494     23  1.100                                             
     0      6.8029130     23  1.100                                             
     1     -4.0817478     23  1.100                                             
  local pseudopotential read in
  atomic valenz-charges read in
  non local Contribution for L=           0  read in
    real space projection operators read in
  non local Contribution for L=           0  read in
    real space projection operators read in
  non local Contribution for L=           1  read in
    real space projection operators read in
    PAW grid and wavefunctions read in
 
   number of l-projection  operators is LMAX  =           3
   number of lm-projection operators is LMMAX =           5
 
 Optimization of the real space projectors (new method)

 maximal supplied QI-value         = 14.36
 optimisation between [QCUT,QGAM] = [ 10.20, 20.39] = [ 29.12,116.47] Ry 
 Optimized for a Real-space Cutoff    1.51 Angstroem

   l    n(q)    QCUT    max X(q) W(low)/X(q) W(high)/X(q)  e(spline) 
   2      8    10.197    66.195    0.45E-03    0.45E-03    0.14E-06
   2      8    10.197    64.643    0.46E-03    0.46E-03    0.14E-06
   0      9    10.197    95.520    0.15E-03    0.11E-03    0.54E-07
   0      9    10.197    63.403    0.15E-03    0.11E-03    0.52E-07
   1      9    10.197    19.961    0.13E-03    0.17E-03    0.77E-07
   1      9    10.197    13.289    0.10E-03    0.15E-03    0.67E-07
 Optimization of the real space projectors (new method)

 maximal supplied QI-value         = 25.13
 optimisation between [QCUT,QGAM] = [ 10.05, 20.36] = [ 28.30,116.06] Ry 
 Optimized for a Real-space Cutoff    1.30 Angstroem

   l    n(q)    QCUT    max X(q) W(low)/X(q) W(high)/X(q)  e(spline) 
   0      8    10.053   115.676    0.49E-03    0.72E-03    0.18E-06
   0      8    10.053    87.132    0.49E-03    0.71E-03    0.18E-06
   1      7    10.053     4.429    0.32E-03    0.31E-03    0.18E-06
   1      7    10.053     2.733    0.23E-03    0.19E-03    0.20E-06
 Optimization of the real space projectors (new method)

 maximal supplied QI-value         = 34.20
 optimisation between [QCUT,QGAM] = [  9.92, 20.18] = [ 27.55,114.04] Ry 
 Optimized for a Real-space Cutoff    1.26 Angstroem

   l    n(q)    QCUT    max X(q) W(low)/X(q) W(high)/X(q)  e(spline) 
   0      8     9.919    19.460    0.50E-03    0.23E-03    0.29E-06
   0      8     9.919    12.209    0.48E-03    0.23E-03    0.28E-06
   1      7     9.919     4.655    0.17E-03    0.75E-03    0.30E-06
  PAW_PBE Pt 04Feb2005                  :
 energy of atom  1       EATOM= -729.1176
 kinetic energy error for atom=    0.0056 (will be added to EATOM!!)
  PAW_PBE C 08Apr2002                   :
 energy of atom  2       EATOM= -147.1560
 kinetic energy error for atom=    0.0288 (will be added to EATOM!!)
  PAW_PBE H 15Jun2001                   :
 energy of atom  3       EATOM=  -12.4884
 kinetic energy error for atom=    0.0098 (will be added to EATOM!!)
 
 
 POSCAR: Pt  C  H                                
  positions in cartesian coordinates
  No initial velocities read in
 exchange correlation table for  LEXCH =        8
   RHO(1)=    0.500       N(1)  =     2000
   RHO(2)=  100.500       N(2)  =     4000

 VTST: version 3.1, (03/28/14)

 CHAIN: initializing optimizer
 
 OPT: Using VASP Dynamics algorithm
 CHAIN: Read ICHAIN            0
 
 POSCAR: Pt  C  H                                
  positions in cartesian coordinates
  No initial velocities read in
 


--------------------------------------------------------------------------------------------------------


 ion  position               nearest neighbor table
   1  0.000  0.000  0.343-  12 2.81  16 2.81  10 2.81   6 2.81   7 2.81   8 2.81   2 2.81   3 2.81
                             4 2.81
   2  0.333  0.000  0.343-  10 2.81  11 2.81  17 2.81   3 2.81   9 2.81   1 2.81   4 2.81   5 2.81
                             8 2.81
   3  0.667  0.000  0.343-  11 2.81  18 2.81  12 2.81   2 2.81   5 2.81   9 2.81   1 2.81   6 2.81
                             7 2.81
   4  0.000  0.333  0.343-  10 2.81  13 2.81  15 2.81   7 2.81   9 2.81   2 2.81   5 2.81   6 2.81
                             1 2.81
   5  0.333  0.333  0.343-  14 2.81  13 2.81  11 2.81   8 2.81   6 2.81   3 2.81   7 2.81   2 2.81
                             4 2.81
   6  0.667  0.333  0.343-  12 2.81  14 2.81  15 2.81   5 2.81   8 2.81   9 2.81   1 2.81   3 2.81
                             4 2.81
   7  0.000  0.667  0.343-  13 2.81  18 2.81  16 2.81   4 2.81   5 2.81   9 2.81   1 2.81   3 2.81
                             8 2.81
   8  0.333  0.667  0.343-  14 2.81  16 2.81  17 2.81   5 2.81   6 2.81   9 2.81   2 2.81   7 2.81
                             1 2.81
   9  0.667  0.667  0.343-  15 2.81  17 2.81  18 2.81   8 2.81   6 2.81   4 2.81   2 2.81   3 2.81
                             7 2.81
  10  0.111  0.111  0.448-  26 2.78  19 2.78   2 2.81   4 2.81   1 2.81  11 2.81  13 2.81  15 2.81
                            17 2.81  16 2.81  12 2.81  20 2.82
  11  0.444  0.111  0.448-  27 2.78   3 2.81   5 2.81   2 2.81  13 2.81  14 2.81  10 2.81  17 2.81
                            18 2.81  12 2.81  21 2.81  20 2.81
  12  0.778  0.111  0.448-  25 2.78  19 2.78   1 2.81   6 2.81   3 2.81  15 2.81  14 2.81  16 2.81
                            18 2.81  10 2.81  11 2.81  21 2.83
  13  0.111  0.444  0.448-  22 2.79  20 2.80   7 2.81   4 2.81   5 2.81  14 2.81  10 2.81  11 2.81
                            18 2.81  15 2.81  16 2.81  23 2.81
  14  0.444  0.444  0.448-  24 2.78  21 2.80   5 2.81   6 2.81   8 2.81  11 2.81  13 2.81  12 2.81
                            16 2.81  15 2.81  17 2.81  23 2.81
  15  0.778  0.444  0.448-  19 2.77  22 2.79  24 2.79   4 2.81   6 2.81   9 2.81  12 2.81  10 2.81
                            18 2.81  13 2.81  14 2.81  17 2.81
  16  0.111  0.778  0.448-  26 2.78  25 2.79   1 2.81   8 2.81   7 2.81  17 2.81  14 2.81  12 2.81
                            18 2.81  13 2.81  10 2.81  23 2.82
  17  0.444  0.778  0.448-  24 2.78  26 2.79  27 2.79   2 2.81   8 2.81   9 2.81  16 2.81  10 2.81
                            18 2.81  14 2.81  15 2.81  11 2.81
  18  0.778  0.778  0.448-  22 2.78  25 2.78  27 2.79   7 2.81   3 2.81   9 2.81  15 2.81  16 2.81
                            17 2.81  11 2.81  12 2.81  13 2.81
  19  0.888  0.224  0.551-  15 2.77  12 2.78  10 2.78  25 2.81  22 2.81  28 2.81  26 2.81  24 2.81
                            31 2.81  33 2.82  20 2.82  21 2.83
  20  0.223  0.225  0.553-  23 2.77  21 2.77  29 2.78  31 2.79  13 2.80  27 2.80  22 2.81  11 2.81
                            10 2.82  19 2.82  26 2.82  32 2.99
  21  0.552  0.225  0.553-  23 2.77  20 2.77  30 2.78  33 2.79  14 2.80  27 2.80  24 2.81  11 2.81
                            25 2.83  19 2.83  12 2.83  32 2.98
  22  0.888  0.557  0.551-  18 2.78  13 2.79  15 2.79  31 2.80  23 2.80  20 2.81  25 2.81  19 2.81
                            34 2.81  27 2.81  24 2.81  36 2.82
  23  0.223  0.554  0.553-  21 2.77  20 2.77  35 2.79  34 2.79  24 2.80  22 2.80  13 2.81  14 2.81
                            16 2.82  26 2.83  25 2.83  32 2.97
  24  0.554  0.557  0.551-  17 2.78  14 2.78  15 2.79  33 2.80  23 2.80  26 2.81  21 2.81  19 2.81
                            27 2.81  36 2.81  22 2.81  35 2.82
  25  0.888  0.890  0.551-  12 2.78  18 2.78  16 2.79  34 2.81  22 2.81  26 2.81  27 2.81  19 2.81
                            28 2.81  30 2.82  21 2.83  23 2.83
  26  0.221  0.890  0.551-  10 2.78  16 2.78  17 2.79  24 2.81  35 2.81  25 2.81  27 2.81  19 2.81
                            29 2.81  28 2.82  20 2.82  23 2.83
  27  0.554  0.891  0.551-  11 2.78  17 2.79  18 2.79  36 2.80  20 2.80  21 2.80  25 2.81  26 2.81
                            24 2.81  30 2.81  22 2.81  29 2.82
  28  0.997  0.003  0.656-  33 2.80  29 2.80  35 2.80  30 2.80  34 2.81  31 2.81  19 2.81  25 2.81
                            26 2.82
  29  0.331  0.003  0.656-  20 2.78  35 2.80  28 2.80  36 2.81  31 2.81  26 2.81  30 2.81  27 2.82
                            32 2.82
  30  0.665  0.003  0.656-  21 2.78  34 2.80  36 2.80  28 2.80  33 2.81  27 2.81  29 2.81  25 2.82
                            32 2.82
  31  0.997  0.336  0.656-  20 2.79  33 2.80  22 2.80  28 2.81  36 2.81  29 2.81  34 2.81  19 2.81
                            32 2.83
  32  0.331  0.336  0.668-  37 2.10  30 2.82  33 2.82  35 2.82  29 2.82  34 2.82  31 2.83  23 2.97
                            21 2.98  20 2.99
  33  0.665  0.336  0.656-  21 2.79  31 2.80  24 2.80  28 2.80  36 2.81  30 2.81  35 2.81  19 2.82
                            32 2.82
  34  0.997  0.670  0.656-  23 2.79  30 2.80  28 2.81  36 2.81  35 2.81  25 2.81  31 2.81  22 2.81
                            32 2.82
  35  0.330  0.670  0.656-  23 2.79  29 2.80  28 2.80  34 2.81  26 2.81  36 2.81  33 2.81  24 2.82
                            32 2.82
  36  0.664  0.670  0.656-  27 2.80  30 2.80  29 2.81  34 2.81  31 2.81  33 2.81  35 2.81  24 2.81
                            22 2.82
  37  0.323  0.329  0.763-  39 1.10  40 1.10  38 1.51  32 2.10
  38  0.450  0.379  0.796-  43 1.10  42 1.10  41 1.11  37 1.51
  39  0.178  0.424  0.774-  37 1.10
  40  0.355  0.188  0.773-  37 1.10
  41  0.436  0.366  0.846-  38 1.11
  42  0.595  0.287  0.784-  38 1.10
  43  0.417  0.521  0.787-  38 1.10
 
  LATTYP: Found a hexagonal cell.
 ALAT       =     8.4216417639
 C/A-ratio  =     2.5976219743
  
  Lattice vectors:
  
 A1 = (   4.2108208820,  -7.2933557091,   0.0000000000)
 A2 = (  -8.4216417639,   0.0000000000,   0.0000000000)
 A3 = (   0.0000000000,   0.0000000000, -21.8762417060)


Analysis of symmetry for initial positions (statically):
=====================================================================
 Subroutine PRICEL returns:
 Original cell was already a primitive cell.
 

 Routine SETGRP: Setting up the symmetry group for a 
 hexagonal supercell.


 Subroutine GETGRP returns: Found  1 space group operations
 (whereof  1 operations were pure point group operations)
 out of a pool of 24 trial point group operations.


The static configuration has the point symmetry C_1 .


Analysis of symmetry for dynamics (positions and initial velocities):
=====================================================================
 Subroutine PRICEL returns:
 Original cell was already a primitive cell.
 

 Routine SETGRP: Setting up the symmetry group for a 
 hexagonal supercell.


 Subroutine GETGRP returns: Found  1 space group operations
 (whereof  1 operations were pure point group operations)
 out of a pool of 24 trial point group operations.


The dynamic configuration has the point symmetry C_1 .


Analysis of constrained symmetry for selective dynamics:
=====================================================================
 Subroutine PRICEL returns:
 Original cell was already a primitive cell.
 

 Routine SETGRP: Setting up the symmetry group for a 
 hexagonal supercell.


 Subroutine GETGRP returns: Found  1 space group operations
 (whereof  1 operations were pure point group operations)
 out of a pool of 24 trial point group operations.


The constrained configuration has the point symmetry C_1 .
 
 
 KPOINTS: KPOINTS created by Atomic Simulation Env

Automatic generation of k-mesh.
Space group operators:
 irot       det(A)        alpha          n_x          n_y          n_z        tau_x        tau_y        tau_z
    1     1.000000     0.000000     1.000000     0.000000     0.000000     0.000000     0.000000     0.000000
 
 Subroutine IBZKPT returns following result:
 ===========================================
 
 Found     54 irreducible k-points:
 
 Following reciprocal coordinates:
            Coordinates               Weight
  0.083333  0.083333  0.000000     16.000000
  0.000000  0.083333  0.000000     16.000000
 -0.083333  0.000000  0.000000     16.000000
  0.250000  0.083333  0.000000     16.000000
  0.166667  0.250000  0.000000     16.000000
 -0.083333  0.166667  0.000000     16.000000
  0.166667 -0.083333  0.000000     16.000000
 -0.083333 -0.250000  0.000000     16.000000
 -0.250000 -0.166667  0.000000     16.000000
  0.416667  0.083333  0.000000     16.000000
  0.333333  0.416667  0.000000     16.000000
 -0.083333  0.333333  0.000000     16.000000
  0.333333 -0.083333  0.000000     16.000000
 -0.083333 -0.416667  0.000000     16.000000
 -0.416667 -0.333333  0.000000     16.000000
 -0.416667  0.083333  0.000000     16.000000
  0.500000 -0.416667  0.000000     16.000000
 -0.083333  0.500000  0.000000     16.000000
  0.500000 -0.083333  0.000000     16.000000
 -0.083333  0.416667  0.000000     16.000000
  0.416667  0.500000  0.000000     16.000000
 -0.250000  0.083333  0.000000     16.000000
 -0.333333 -0.250000  0.000000     16.000000
 -0.083333 -0.333333  0.000000     16.000000
 -0.333333 -0.083333  0.000000     16.000000
 -0.083333  0.250000  0.000000     16.000000
  0.250000  0.333333  0.000000     16.000000
 -0.083333  0.083333  0.000000     16.000000
 -0.166667 -0.083333  0.000000     16.000000
 -0.083333 -0.166667  0.000000     16.000000
  0.250000  0.250000  0.000000     16.000000
  0.000000  0.250000  0.000000     16.000000
 -0.250000  0.000000  0.000000     16.000000
  0.416667  0.250000  0.000000     16.000000
  0.166667  0.416667  0.000000     16.000000
 -0.250000  0.166667  0.000000     16.000000
  0.166667 -0.250000  0.000000     16.000000
 -0.250000 -0.416667  0.000000     16.000000
 -0.416667 -0.166667  0.000000     16.000000
 -0.416667  0.250000  0.000000     16.000000
  0.333333 -0.416667  0.000000     16.000000
 -0.250000  0.333333  0.000000     16.000000
  0.333333 -0.250000  0.000000     16.000000
 -0.250000  0.416667  0.000000     16.000000
  0.416667 -0.333333  0.000000     16.000000
 -0.250000  0.250000  0.000000     16.000000
  0.500000 -0.250000  0.000000     16.000000
 -0.250000  0.500000  0.000000     16.000000
  0.416667  0.416667  0.000000     16.000000
  0.000000  0.416667  0.000000     16.000000
 -0.416667 -0.000000  0.000000     16.000000
 -0.416667  0.416667  0.000000     16.000000
  0.166667 -0.416667  0.000000     16.000000
 -0.416667  0.166667  0.000000     16.000000
 
 Following cartesian coordinates:
            Coordinates               Weight
  0.009895  0.005713  0.000000     16.000000
  0.000000  0.011426  0.000000     16.000000
 -0.009895  0.005713  0.000000     16.000000
  0.029685 -0.005713  0.000000     16.000000
  0.019790  0.022852  0.000000     16.000000
 -0.009895  0.028565  0.000000     16.000000
  0.019790 -0.022852  0.000000     16.000000
 -0.009895 -0.028565  0.000000     16.000000
 -0.029685 -0.005713  0.000000     16.000000
  0.049476 -0.017139  0.000000     16.000000
  0.039581  0.034278  0.000000     16.000000
 -0.009895  0.051417  0.000000     16.000000
  0.039581 -0.034278  0.000000     16.000000
 -0.009895 -0.051417  0.000000     16.000000
 -0.049476 -0.017139  0.000000     16.000000
 -0.049476  0.039991  0.000000     16.000000
  0.059371 -0.091407  0.000000     16.000000
 -0.009895  0.074269  0.000000     16.000000
  0.059371 -0.045704  0.000000     16.000000
 -0.009895  0.062843  0.000000     16.000000
  0.049476  0.039991  0.000000     16.000000
 -0.029685  0.028565  0.000000     16.000000
 -0.039581 -0.011426  0.000000     16.000000
 -0.009895 -0.039991  0.000000     16.000000
 -0.039581  0.011426  0.000000     16.000000
 -0.009895  0.039991  0.000000     16.000000
  0.029685  0.028565  0.000000     16.000000
 -0.009895  0.017139  0.000000     16.000000
 -0.019790  0.000000  0.000000     16.000000
 -0.009895 -0.017139  0.000000     16.000000
  0.029685  0.017139  0.000000     16.000000
  0.000000  0.034278  0.000000     16.000000
 -0.029685  0.017139  0.000000     16.000000
  0.049476  0.005713  0.000000     16.000000
  0.019790  0.045704  0.000000     16.000000
 -0.029685  0.039991  0.000000     16.000000
  0.019790 -0.045704  0.000000     16.000000
 -0.029685 -0.039991  0.000000     16.000000
 -0.049476  0.005713  0.000000     16.000000
 -0.049476  0.062843  0.000000     16.000000
  0.039581 -0.079981  0.000000     16.000000
 -0.029685  0.062843  0.000000     16.000000
  0.039581 -0.057130  0.000000     16.000000
 -0.029685  0.074269  0.000000     16.000000
  0.049476 -0.074269  0.000000     16.000000
 -0.029685  0.051417  0.000000     16.000000
  0.059371 -0.068556  0.000000     16.000000
 -0.029685  0.085694  0.000000     16.000000
  0.049476  0.028565  0.000000     16.000000
  0.000000  0.057130  0.000000     16.000000
 -0.049476  0.028565  0.000000     16.000000
 -0.049476  0.085694  0.000000     16.000000
  0.019790 -0.068556  0.000000     16.000000
 -0.049476  0.051417  0.000000     16.000000
 


--------------------------------------------------------------------------------------------------------




 Dimension of arrays:
   k-points           NKPTS =     54   k-points in BZ     NKDIM =     54   number of bands    NBANDS=    225
   number of dos      NEDOS =    301   number of ions     NIONS =     43
   non local maximal  LDIM  =      6   non local SUM 2l+1 LMDIM =     18
   total plane-waves  NPLWV = 190512
   max r-space proj   IRMAX =   2088   max aug-charges    IRDMAX=   8786
   dimension x,y,z NGX =    42 NGY =   42 NGZ =  108
   dimension x,y,z NGXF=    84 NGYF=   84 NGZF=  216
   support grid    NGXF=    84 NGYF=   84 NGZF=  216
   ions per type =              36   2   5
 NGX,Y,Z   is equivalent  to a cutoff of   8.29,  8.29,  8.21 a.u.
 NGXF,Y,Z  is equivalent  to a cutoff of  16.58, 16.58, 16.41 a.u.


 I would recommend the setting:
   dimension x,y,z NGX =    41 NGY =   41 NGZ =  107
 SYSTEM =  unknown system                          
 POSCAR =  Pt  C  H                                

 Startparameter for this run:
   NWRITE =      2    write-flag & timer
   PREC   = normal    normal or accurate (medium, high low for compatibility)
   ISTART =      0    job   : 0-new  1-cont  2-samecut
   ICHARG =      2    charge: 1-file 2-atom 10-const
   ISPIN  =      1    spin polarized calculation?
   LNONCOLLINEAR =      F non collinear calculations
   LSORBIT =      F    spin-orbit coupling
   INIWAV =      1    electr: 0-lowe 1-rand  2-diag
   LASPH  =      F    aspherical Exc in radial PAW
   METAGGA=      F    non-selfconsistent MetaGGA calc.

 Electronic Relaxation 1
   ENCUT  =  400.0 eV  29.40 Ry    5.42 a.u.  13.73 13.73 35.67*2*pi/ulx,y,z
   ENINI  =  400.0     initial cutoff
   ENAUG  =  644.9 eV  augmentation charge cutoff
   NELM   =     60;   NELMIN=  4; NELMDL= -4     # of ELM steps 
   EDIFF  = 0.1E-05   stopping-criterion for ELM
   LREAL  =      T    real-space projection
   NLSPLINE    = F    spline interpolate recip. space projectors
   LCOMPAT=      F    compatible to vasp.4.4
   GGA_COMPAT  = T    GGA compatible to vasp.4.4-vasp.4.6
   LMAXPAW     = -100 max onsite density
   LMAXMIX     =    2 max onsite mixed and CHGCAR
   VOSKOWN=      0    Vosko Wilk Nusair interpolation
   ROPT   =   -0.00050  -0.00050  -0.00050
 Ionic relaxation
   EDIFFG = 0.1E-04   stopping-criterion for IOM
   NSW    =      0    number of steps for IOM
   NBLOCK =      1;   KBLOCK =      1    inner block; outer block 
   IBRION =     -1    ionic relax: 0-MD 1-quasi-New 2-CG
   NFREE  =      0    steps in history (QN), initial steepest desc. (CG)
   ISIF   =      2    stress and relaxation
   IWAVPR =     10    prediction:  0-non 1-charg 2-wave 3-comb
   ISYM   =      2    0-nonsym 1-usesym 2-fastsym
   LCORR  =      T    Harris-Foulkes like correction to forces

   POTIM  = 0.5000    time-step for ionic-motion
   TEIN   =    0.0    initial temperature
   TEBEG  =    0.0;   TEEND  =   0.0 temperature during run
   SMASS  =  -3.00    Nose mass-parameter (am)
   estimated Nose-frequenzy (Omega)   =  0.10E-29 period in steps =****** mass=  -0.162E-26a.u.
   SCALEE = 1.0000    scale energy and forces
   NPACO  =    256;   APACO  = 16.0  distance and # of slots for P.C.
   PSTRESS=    0.0 pullay stress

  Mass of Ions in am
   POMASS = 195.08 12.01  1.00
  Ionic Valenz
   ZVAL   =  10.00  4.00  1.00
  Atomic Wigner-Seitz radii
   RWIGS  =  -1.00 -1.00 -1.00
  virtual crystal weights 
   VCA    =   1.00  1.00  1.00
   NELECT =     373.0000    total number of electrons
   NUPDOWN=      -1.0000    fix difference up-down

 DOS related values:
   EMIN   =  10.00;   EMAX   =-10.00  energy-range for DOS
   EFERMI =   0.00
   ISMEAR =    -1;   SIGMA  =   0.10  broadening in eV -4-tet -1-fermi 0-gaus

 Electronic relaxation 2 (details)
   IALGO  =     68    algorithm
   LDIAG  =      T    sub-space diagonalisation (order eigenvalues)
   LSUBROT=      F    optimize rotation matrix (better conditioning)
   TURBO    =      0    0=normal 1=particle mesh
   IRESTART =      0    0=no restart 2=restart with 2 vectors
   NREBOOT  =      0    no. of reboots
   NMIN     =      0    reboot dimension
   EREF     =   0.00    reference energy to select bands
   IMIX   =      4    mixing-type and parameters
     AMIX     =   0.40;   BMIX     =  1.00
     AMIX_MAG =   1.60;   BMIX_MAG =  1.00
     AMIN     =   0.10
     WC   =   100.;   INIMIX=   1;  MIXPRE=   1;  MAXMIX= -45

 Intra band minimization:
   WEIMIN = 0.0000     energy-eigenvalue tresh-hold
   EBREAK =  0.11E-08  absolut break condition
   DEPER  =   0.30     relativ break condition  

   TIME   =   0.40     timestep for ELM

  volume/ion in A,a.u.               =      31.25       210.87
  Fermi-wavevector in a.u.,A,eV,Ry     =   1.067937  2.018108 15.517290  1.140489
  Thomas-Fermi vector in A             =   2.203569
 
 Write flags
   LWAVE  =      F    write WAVECAR
   LCHARG =      F    write CHGCAR
   LVTOT  =      F    write LOCPOT, total local potential
   LVHAR  =      F    write LOCPOT, Hartree potential only
   LELF   =      F    write electronic localiz. function (ELF)
   LORBIT =      0    0 simple, 1 ext, 2 COOP (PROOUT)


 Dipole corrections
   LMONO  =      F    monopole corrections only (constant potential shift)
   LDIPOL =      F    correct potential (dipole corrections)
   IDIPOL =      0    1-x, 2-y, 3-z, 4-all directions 
   EPSILON=  1.0000000 bulk dielectric constant

 Exchange correlation treatment:
   GGA     =    PE    GGA type
   LEXCH   =     8    internal setting for exchange type
   VOSKOWN=      0    Vosko Wilk Nusair interpolation
   LHFCALC =     F    Hartree Fock is set to
   LHFONE  =     F    Hartree Fock one center treatment
   AEXX    =    0.0000 exact exchange contribution

 Linear response parameters
   LEPSILON=     F    determine dielectric tensor
   LRPA    =     F    only Hartree local field effects (RPA)
   LNABLA  =     F    use nabla operator in PAW spheres
   LVEL    =     F    velocity operator in full k-point grid
   LINTERFAST=   F  fast interpolation
   KINTER  =     0    interpolate to denser k-point grid
   CSHIFT  =0.1000    complex shift for real part using Kramers Kronig
   OMEGAMAX=  -1.0    maximum frequency
   DEG_THRESHOLD= 0.2000000E-02 threshold for treating states as degnerate
   RTIME   =    0.100 relaxation time in fs

 Orbital magnetization related:
   ORBITALMAG=     F  switch on orbital magnetization
   LCHIMAG   =     F  perturbation theory with respect to B field
   DQ        =  0.001000  dq finite difference perturbation B field



--------------------------------------------------------------------------------------------------------


 Static calculation
 charge density and potential will be updated during run
 non-spin polarized calculation
 RMM-DIIS sequential band-by-band and
  variant of blocked Davidson during initial phase
 perform sub-space diagonalisation
    before iterative eigenvector-optimisation
 modified Broyden-mixing scheme, WC =      100.0
 initial mixing is a Kerker type mixing with AMIX =  0.4000 and BMIX =      1.0000
 Hartree-type preconditioning will be used
 using additional bands           38
 real space projection scheme for non local part
 use partial core corrections
 calculate Harris-corrections to forces 
   (improved forces if not selfconsistent)
 use gradient corrections 
 use of overlap-Matrix (Vanderbilt PP)
 Fermi-smearing in eV        SIGMA  =   0.10


--------------------------------------------------------------------------------------------------------


  energy-cutoff  :      400.00
  volume of cell :     1343.68
      direct lattice vectors                 reciprocal lattice vectors
     8.421641764  0.000000000  0.000000000     0.118741693 -0.068555548  0.000000000
     4.210820882  7.293355709  0.000000000     0.000000000  0.137111097  0.000000000
     0.000000000  0.000000000 21.876241706     0.000000000  0.000000000  0.045711691

  length of vectors
     8.421641764  8.421641764 21.876241706     0.137111097  0.137111097  0.045711691


 
 k-points in units of 2pi/SCALE and weight: KPOINTS created by Atomic Simulation Env
   0.00989514  0.00571296  0.00000000       0.019
   0.00000000  0.01142592  0.00000000       0.019
  -0.00989514  0.00571296  0.00000000       0.019
   0.02968542 -0.00571296  0.00000000       0.019
   0.01979028  0.02285185  0.00000000       0.019
  -0.00989514  0.02856481  0.00000000       0.019
   0.01979028 -0.02285185  0.00000000       0.019
  -0.00989514 -0.02856481  0.00000000       0.019
  -0.02968542 -0.00571296  0.00000000       0.019
   0.04947571 -0.01713889  0.00000000       0.019
   0.03958056  0.03427777  0.00000000       0.019
  -0.00989514  0.05141666  0.00000000       0.019
   0.03958056 -0.03427777  0.00000000       0.019
  -0.00989514 -0.05141666  0.00000000       0.019
  -0.04947571 -0.01713889  0.00000000       0.019
  -0.04947571  0.03999074  0.00000000       0.019
   0.05937085 -0.09140740  0.00000000       0.019
  -0.00989514  0.07426851  0.00000000       0.019
   0.05937085 -0.04570370  0.00000000       0.019
  -0.00989514  0.06284259  0.00000000       0.019
   0.04947571  0.03999074  0.00000000       0.019
  -0.02968542  0.02856481  0.00000000       0.019
  -0.03958056 -0.01142592  0.00000000       0.019
  -0.00989514 -0.03999074  0.00000000       0.019
  -0.03958056  0.01142592  0.00000000       0.019
  -0.00989514  0.03999074  0.00000000       0.019
   0.02968542  0.02856481  0.00000000       0.019
  -0.00989514  0.01713889  0.00000000       0.019
  -0.01979028  0.00000000  0.00000000       0.019
  -0.00989514 -0.01713889  0.00000000       0.019
   0.02968542  0.01713889  0.00000000       0.019
   0.00000000  0.03427777  0.00000000       0.019
  -0.02968542  0.01713889  0.00000000       0.019
   0.04947571  0.00571296  0.00000000       0.019
   0.01979028  0.04570370  0.00000000       0.019
  -0.02968542  0.03999074  0.00000000       0.019
   0.01979028 -0.04570370  0.00000000       0.019
  -0.02968542 -0.03999074  0.00000000       0.019
  -0.04947571  0.00571296  0.00000000       0.019
  -0.04947571  0.06284259  0.00000000       0.019
   0.03958056 -0.07998147  0.00000000       0.019
  -0.02968542  0.06284259  0.00000000       0.019
   0.03958056 -0.05712962  0.00000000       0.019
  -0.02968542  0.07426851  0.00000000       0.019
   0.04947571 -0.07426851  0.00000000       0.019
  -0.02968542  0.05141666  0.00000000       0.019
   0.05937085 -0.06855555  0.00000000       0.019
  -0.02968542  0.08569444  0.00000000       0.019
   0.04947571  0.02856481  0.00000000       0.019
   0.00000000  0.05712962  0.00000000       0.019
  -0.04947571  0.02856481  0.00000000       0.019
  -0.04947571  0.08569444  0.00000000       0.019
   0.01979028 -0.06855555  0.00000000       0.019
  -0.04947571  0.05141666  0.00000000       0.019
 
 k-points in reciprocal lattice and weights: KPOINTS created by Atomic Simulation Env
   0.08333333  0.08333333  0.00000000       0.019
   0.00000000  0.08333333  0.00000000       0.019
  -0.08333333  0.00000000  0.00000000       0.019
   0.25000000  0.08333333  0.00000000       0.019
   0.16666667  0.25000000  0.00000000       0.019
  -0.08333333  0.16666667  0.00000000       0.019
   0.16666667 -0.08333333  0.00000000       0.019
  -0.08333333 -0.25000000  0.00000000       0.019
  -0.25000000 -0.16666667  0.00000000       0.019
   0.41666667  0.08333333  0.00000000       0.019
   0.33333333  0.41666667  0.00000000       0.019
  -0.08333333  0.33333333  0.00000000       0.019
   0.33333333 -0.08333333  0.00000000       0.019
  -0.08333333 -0.41666667  0.00000000       0.019
  -0.41666667 -0.33333333  0.00000000       0.019
  -0.41666667  0.08333333  0.00000000       0.019
   0.50000000 -0.41666667  0.00000000       0.019
  -0.08333333  0.50000000  0.00000000       0.019
   0.50000000 -0.08333333  0.00000000       0.019
  -0.08333333  0.41666667  0.00000000       0.019
   0.41666667  0.50000000  0.00000000       0.019
  -0.25000000  0.08333333  0.00000000       0.019
  -0.33333333 -0.25000000  0.00000000       0.019
  -0.08333333 -0.33333333  0.00000000       0.019
  -0.33333333 -0.08333333  0.00000000       0.019
  -0.08333333  0.25000000  0.00000000       0.019
   0.25000000  0.33333333  0.00000000       0.019
  -0.08333333  0.08333333  0.00000000       0.019
  -0.16666667 -0.08333333  0.00000000       0.019
  -0.08333333 -0.16666667  0.00000000       0.019
   0.25000000  0.25000000  0.00000000       0.019
   0.00000000  0.25000000  0.00000000       0.019
  -0.25000000  0.00000000  0.00000000       0.019
   0.41666667  0.25000000  0.00000000       0.019
   0.16666667  0.41666667  0.00000000       0.019
  -0.25000000  0.16666667  0.00000000       0.019
   0.16666667 -0.25000000  0.00000000       0.019
  -0.25000000 -0.41666667  0.00000000       0.019
  -0.41666667 -0.16666667  0.00000000       0.019
  -0.41666667  0.25000000  0.00000000       0.019
   0.33333333 -0.41666667  0.00000000       0.019
  -0.25000000  0.33333333  0.00000000       0.019
   0.33333333 -0.25000000  0.00000000       0.019
  -0.25000000  0.41666667  0.00000000       0.019
   0.41666667 -0.33333333  0.00000000       0.019
  -0.25000000  0.25000000  0.00000000       0.019
   0.50000000 -0.25000000  0.00000000       0.019
  -0.25000000  0.50000000  0.00000000       0.019
   0.41666667  0.41666667  0.00000000       0.019
   0.00000000  0.41666667  0.00000000       0.019
  -0.41666667 -0.00000000  0.00000000       0.019
  -0.41666667  0.41666667  0.00000000       0.019
   0.16666667 -0.41666667  0.00000000       0.019
  -0.41666667  0.16666667  0.00000000       0.019
 
 position of ions in fractional coordinates (direct lattice) 
   0.00000000  0.00000000  0.34283768
   0.33333333  0.00000000  0.34283768
   0.66666667  0.00000000  0.34283768
   0.00000000  0.33333333  0.34283768
   0.33333333  0.33333333  0.34283768
   0.66666667  0.33333333  0.34283768
   0.00000000  0.66666667  0.34283768
   0.33333333  0.66666667  0.34283768
   0.66666667  0.66666667  0.34283768
   0.11111111  0.11111111  0.44761256
   0.44444444  0.11111111  0.44761256
   0.77777778  0.11111111  0.44761256
   0.11111111  0.44444444  0.44761256
   0.44444444  0.44444444  0.44761256
   0.77777778  0.44444444  0.44761256
   0.11111111  0.77777778  0.44761256
   0.44444444  0.77777778  0.44761256
   0.77777778  0.77777778  0.44761256
   0.88788872  0.22371410  0.55084510
   0.22250991  0.22487959  0.55256961
   0.55162472  0.22511764  0.55273788
   0.88825129  0.55691533  0.55104053
   0.22274234  0.55395918  0.55282234
   0.55420439  0.55703018  0.55110585
   0.88785869  0.89037315  0.55095412
   0.22121508  0.89024407  0.55090491
   0.55434115  0.89078055  0.55107839
   0.99749911  0.00302073  0.65600534
   0.33063226  0.00257771  0.65594694
   0.66470623  0.00267634  0.65609433
   0.99723162  0.33633397  0.65591322
   0.33146357  0.33601849  0.66765527
   0.66486105  0.33615947  0.65596561
   0.99733748  0.67000276  0.65608001
   0.33045201  0.67004783  0.65611405
   0.66422423  0.66995940  0.65595250
   0.32314445  0.32920475  0.76333758
   0.45009277  0.37890366  0.79630160
   0.17830031  0.42423223  0.77428995
   0.35513417  0.18833645  0.77349130
   0.43634033  0.36614004  0.84612162
   0.59503165  0.28702786  0.78447532
   0.41659303  0.52075038  0.78725812
 
 position of ions in cartesian coordinates  (Angst):
   0.00000000  0.00000000  7.50000000
   2.80721392  0.00000000  7.50000000
   5.61442784  0.00000000  7.50000000
   1.40360696  2.43111857  7.50000000
   4.21082088  2.43111857  7.50000000
   7.01803480  2.43111857  7.50000000
   2.80721392  4.86223714  7.50000000
   5.61442784  4.86223714  7.50000000
   8.42164176  4.86223714  7.50000000
   1.40360696  0.81037286  9.79208057
   4.21082088  0.81037286  9.79208057
   7.01803480  0.81037286  9.79208057
   2.80721392  3.24149143  9.79208057
   5.61442784  3.24149143  9.79208057
   8.42164176  3.24149143  9.79208057
   4.21082088  5.67261000  9.79208057
   7.01803480  5.67261000  9.79208057
   9.82524872  5.67261000  9.79208057
   8.41950068  1.63162649 12.05042055
   2.82082641  1.64012686 12.08814644
   5.59351585  1.64186302 12.09182750
   9.82560488  4.06178161 12.05469578
   4.20847904  4.04022131 12.09367507
   7.01286519  4.06261926 12.05612482
  11.22642969  6.49380811 12.05280554
   5.61165247  6.49286671 12.05172904
   8.41937992  6.49677943 12.05552406
   8.41329995  0.02203126 14.35093146
   2.79532074  0.01880014 14.34965380
   5.60918734  0.01951950 14.35287822
   9.81456953  2.45300325 14.34891623
   4.20638112  2.45070237 14.60578812
   7.01472887  2.45173059 14.35006219
  11.22048059  4.88656844 14.35256487
   5.60439985  4.88689714 14.35330961
   8.41493756  4.88625221 14.34977539
   4.10762905  2.40100734 16.69895741
   5.38601552  2.76347920 17.42008623
   3.28794726  3.09407655 16.93855404
   3.78386383  1.37360473 16.92108259
   5.21645208  2.67038957 18.50996116
   6.21976634  2.09339629 17.16137164
   5.70118380  3.79801777 17.22224882
 


--------------------------------------------------------------------------------------------------------


 k-point  1 :   0.0833 0.0833 0.0000  plane waves:   24413
 k-point  2 :   0.0000 0.0833 0.0000  plane waves:   24413
 k-point  3 :  -0.0833 0.0000 0.0000  plane waves:   24413
 k-point  4 :   0.2500 0.0833 0.0000  plane waves:   24407
 k-point  5 :   0.1667 0.2500 0.0000  plane waves:   24407
 k-point  6 :  -0.0833 0.1667 0.0000  plane waves:   24407
 k-point  7 :   0.1667-0.0833 0.0000  plane waves:   24407
 k-point  8 :  -0.0833-0.2500 0.0000  plane waves:   24407
 k-point  9 :  -0.2500-0.1667 0.0000  plane waves:   24407
 k-point 10 :   0.4167 0.0833 0.0000  plane waves:   24416
 k-point 11 :   0.3333 0.4167 0.0000  plane waves:   24416
 k-point 12 :  -0.0833 0.3333 0.0000  plane waves:   24416
 k-point 13 :   0.3333-0.0833 0.0000  plane waves:   24416
 k-point 14 :  -0.0833-0.4167 0.0000  plane waves:   24416
 k-point 15 :  -0.4167-0.3333 0.0000  plane waves:   24416
 k-point 16 :  -0.4167 0.0833 0.0000  plane waves:   24418
 k-point 17 :   0.5000-0.4167 0.0000  plane waves:   24418
 k-point 18 :  -0.0833 0.5000 0.0000  plane waves:   24418
 k-point 19 :   0.5000-0.0833 0.0000  plane waves:   24418
 k-point 20 :  -0.0833 0.4167 0.0000  plane waves:   24418
 k-point 21 :   0.4167 0.5000 0.0000  plane waves:   24418
 k-point 22 :  -0.2500 0.0833 0.0000  plane waves:   24416
 k-point 23 :  -0.3333-0.2500 0.0000  plane waves:   24416
 k-point 24 :  -0.0833-0.3333 0.0000  plane waves:   24416
 k-point 25 :  -0.3333-0.0833 0.0000  plane waves:   24416
 k-point 26 :  -0.0833 0.2500 0.0000  plane waves:   24416
 k-point 27 :   0.2500 0.3333 0.0000  plane waves:   24416
 k-point 28 :  -0.0833 0.0833 0.0000  plane waves:   24411
 k-point 29 :  -0.1667-0.0833 0.0000  plane waves:   24411
 k-point 30 :  -0.0833-0.1667 0.0000  plane waves:   24411
 k-point 31 :   0.2500 0.2500 0.0000  plane waves:   24440
 k-point 32 :   0.0000 0.2500 0.0000  plane waves:   24440
 k-point 33 :  -0.2500 0.0000 0.0000  plane waves:   24440
 k-point 34 :   0.4167 0.2500 0.0000  plane waves:   24406
 k-point 35 :   0.1667 0.4167 0.0000  plane waves:   24406
 k-point 36 :  -0.2500 0.1667 0.0000  plane waves:   24406
 k-point 37 :   0.1667-0.2500 0.0000  plane waves:   24406
 k-point 38 :  -0.2500-0.4167 0.0000  plane waves:   24406
 k-point 39 :  -0.4167-0.1667 0.0000  plane waves:   24406
 k-point 40 :  -0.4167 0.2500 0.0000  plane waves:   24402
 k-point 41 :   0.3333-0.4167 0.0000  plane waves:   24402
 k-point 42 :  -0.2500 0.3333 0.0000  plane waves:   24402
 k-point 43 :   0.3333-0.2500 0.0000  plane waves:   24402
 k-point 44 :  -0.2500 0.4167 0.0000  plane waves:   24402
 k-point 45 :   0.4167-0.3333 0.0000  plane waves:   24402
 k-point 46 :  -0.2500 0.2500 0.0000  plane waves:   24390
 k-point 47 :   0.5000-0.2500 0.0000  plane waves:   24390
 k-point 48 :  -0.2500 0.5000 0.0000  plane waves:   24390
 k-point 49 :   0.4167 0.4167 0.0000  plane waves:   24430
 k-point 50 :   0.0000 0.4167 0.0000  plane waves:   24430
 k-point 51 :  -0.4167-0.0000 0.0000  plane waves:   24430
 k-point 52 :  -0.4167 0.4167 0.0000  plane waves:   24404
 k-point 53 :   0.1667-0.4167 0.0000  plane waves:   24404
 k-point 54 :  -0.4167 0.1667 0.0000  plane waves:   24404

 maximum and minimum number of plane-waves per node :      6146     6048

 maximum number of plane-waves:     24440
 maximum index in each direction: 
   IXMAX=   14   IYMAX=   14   IZMAX=   35
   IXMIN=  -14   IYMIN=  -14   IZMIN=  -35

 WARNING: aliasing errors must be expected set NGX to  58 to avoid them
 WARNING: aliasing errors must be expected set NGY to  58 to avoid them
 WARNING: aliasing errors must be expected set NGZ to 142 to avoid them
 aliasing errors are usually negligible using standard VASP settings
 and one can safely disregard these warnings

 real space projection operators:
  total allocation   :      10396.29 KBytes
  max/ min on nodes  :       2741.85       2478.73


 parallel 3D FFT for wavefunctions:
    minimum data exchange during FFTs selected (reduces bandwidth)
 parallel 3D FFT for charge:
    minimum data exchange during FFTs selected (reduces bandwidth)


 total amount of memory used by VASP on root node   292342. kBytes
========================================================================

   base      :      30000. kBytes
   nonlr-proj:       4881. kBytes
   fftplans  :       4497. kBytes
   grid      :       7849. kBytes
   one-center:        171. kBytes
   wavefun   :     244944. kBytes
 
     INWAV:  cpu time    0.0000: real time    0.0000
 Broyden mixing: mesh for mixing (old mesh)
   NGX = 27   NGY = 27   NGZ = 71
  (NGX  = 84   NGY  = 84   NGZ  =216)
  gives a total of  51759 points

 initial charge density was supplied:
 charge density of overlapping atoms calculated
 number of electron     373.0000000 magnetization 
 keeping initial charge density in first step


--------------------------------------------------------------------------------------------------------


 Maximum index for non-local projection operator          591
 Maximum index for augmentation-charges          869 (set IRDMAX)


--------------------------------------------------------------------------------------------------------


 First call to EWALD:  gamma=   0.161
 Maximum number of real-space cells 4x 4x 2
 Maximum number of reciprocal cells 2x 2x 5

 FEWALD executed in parallel
    FEWALD:  cpu time    0.0030: real time    0.0029


----------------------------------------- Iteration    1(   1)  ---------------------------------------


    POTLOK:  cpu time    0.0600: real time    0.0600
    SETDIJ:  cpu time    0.0090: real time    0.0095
     EDDAV:  cpu time   69.7564: real time   70.2316
       DOS:  cpu time    0.0030: real time    0.0026
    --------------------------------------------
      LOOP:  cpu time   69.8304: real time   70.3393

 eigenvalue-minimisations  : 24360
 total energy-change (2. order) : 0.2187466E+04  (-0.1476157E+05)
 number of electron     373.0000000 magnetization 
 augmentation part      373.0000000 magnetization 

 Free energy of the ion-electron system (eV)
  ---------------------------------------------------
  alpha Z        PSCENC =       964.74099640
  Ewald energy   TEWEN  =     89927.01451154
  -Hartree energ DENC   =   -118414.49157282
  -exchange      EXHF   =         0.00000000
  -V(xc)+E(xc)   XCENC  =       159.00729334
  PAW double counting   =     25288.16150535   -24271.14804981
  entropy T*S    EENTRO =        -0.55531393
  eigenvalues    EBANDS =      1930.05838416
  atomic energy  EATOM  =     26604.67787617
  Solvation  Ediel_sol  =         0.00000000
  ---------------------------------------------------
  free energy    TOTEN  =      2187.46563041 eV

  energy without entropy =     2188.02094434  energy(sigma->0) =     2187.74328737


--------------------------------------------------------------------------------------------------------




----------------------------------------- Iteration    1(   2)  ---------------------------------------


     EDDAV:  cpu time   81.4816: real time   81.5897
       DOS:  cpu time    0.0030: real time    0.0032
    --------------------------------------------
      LOOP:  cpu time   81.4856: real time   81.6491

 eigenvalue-minimisations  : 28180
 total energy-change (2. order) :-0.2284755E+04  (-0.2117980E+04)
 number of electron     373.0000000 magnetization 
 augmentation part      373.0000000 magnetization 

 Free energy of the ion-electron system (eV)
  ---------------------------------------------------
  alpha Z        PSCENC =       964.74099640
  Ewald energy   TEWEN  =     89927.01451154
  -Hartree energ DENC   =   -118414.49157282
  -exchange      EXHF   =         0.00000000
  -V(xc)+E(xc)   XCENC  =       159.00729334
  PAW double counting   =     25288.16150535   -24271.14804981
  entropy T*S    EENTRO =        -1.07307506
  eigenvalues    EBANDS =      -354.17907624
  atomic energy  EATOM  =     26604.67787617
  Solvation  Ediel_sol  =         0.00000000
  ---------------------------------------------------
  free energy    TOTEN  =       -97.28959112 eV

  energy without entropy =      -96.21651607  energy(sigma->0) =      -96.75305359


--------------------------------------------------------------------------------------------------------




----------------------------------------- Iteration    1(   3)  ---------------------------------------


     EDDAV:  cpu time   83.6733: real time   84.0651
       DOS:  cpu time    0.0030: real time    0.0034
    --------------------------------------------
      LOOP:  cpu time   83.6763: real time   84.1374

 eigenvalue-minimisations  : 29470
 total energy-change (2. order) :-0.1610145E+03  (-0.1460611E+03)
 number of electron     373.0000000 magnetization 
 augmentation part      373.0000000 magnetization 

 Free energy of the ion-electron system (eV)
  ---------------------------------------------------
  alpha Z        PSCENC =       964.74099640
  Ewald energy   TEWEN  =     89927.01451154
  -Hartree energ DENC   =   -118414.49157282
  -exchange      EXHF   =         0.00000000
  -V(xc)+E(xc)   XCENC  =       159.00729334
  PAW double counting   =     25288.16150535   -24271.14804981
  entropy T*S    EENTRO =        -1.90247351
  eigenvalues    EBANDS =      -514.36413321
  atomic energy  EATOM  =     26604.67787617
  Solvation  Ediel_sol  =         0.00000000
  ---------------------------------------------------
  free energy    TOTEN  =      -258.30404654 eV

  energy without entropy =     -256.40157303  energy(sigma->0) =     -257.35280979


--------------------------------------------------------------------------------------------------------




----------------------------------------- Iteration    1(   4)  ---------------------------------------


     EDDAV:  cpu time   90.6432: real time   90.9353
       DOS:  cpu time    0.0030: real time    0.0032
    CHARGE:  cpu time    2.3766: real time    2.3745
    MIXING:  cpu time    0.0020: real time    0.0021
    --------------------------------------------
      LOOP:  cpu time   93.0279: real time   93.3928

 eigenvalue-minimisations  : 31320
 total energy-change (2. order) :-0.7043112E+01  (-0.6820650E+01)
 number of electron     372.9999972 magnetization 
 augmentation part      104.8671069 magnetization 

 Broyden mixing:
  rms(total) = 0.62449E+01    rms(broyden)= 0.62448E+01
  rms(prec ) = 0.63668E+01
  weight for this iteration     100.00

 Free energy of the ion-electron system (eV)
  ---------------------------------------------------
  alpha Z        PSCENC =       964.74099640
  Ewald energy   TEWEN  =     89927.01451154
  -Hartree energ DENC   =   -118414.49157282
  -exchange      EXHF   =         0.00000000
  -V(xc)+E(xc)   XCENC  =       159.00729334
  PAW double counting   =     25288.16150535   -24271.14804981
  entropy T*S    EENTRO =        -1.96068128
  eigenvalues    EBANDS =      -521.34903748
  atomic energy  EATOM  =     26604.67787617
  Solvation  Ediel_sol  =         0.00000000
  ---------------------------------------------------
  free energy    TOTEN  =      -265.34715858 eV

  energy without entropy =     -263.38647730  energy(sigma->0) =     -264.36681794


--------------------------------------------------------------------------------------------------------




----------------------------------------- Iteration    1(   5)  ---------------------------------------


    POTLOK:  cpu time    0.7539: real time    0.7533
    SETDIJ:  cpu time    0.0090: real time    0.0093
    EDDIAG:  cpu time   10.7364: real time   10.7507
  RMM-DIIS:  cpu time   28.8886: real time   29.1460
    ORTHCH:  cpu time    3.0555: real time    3.0753
       DOS:  cpu time    0.0040: real time    0.0034
    CHARGE:  cpu time    2.3146: real time    2.3125
    MIXING:  cpu time    0.0030: real time    0.0021
    --------------------------------------------
      LOOP:  cpu time   45.7660: real time   46.1006

 eigenvalue-minimisations  : 25949
 total energy-change (2. order) : 0.1284749E+02  (-0.5332720E+01)
 number of electron     372.9999992 magnetization 
 augmentation part      111.1929619 magnetization 

 Broyden mixing:
  rms(total) = 0.43982E+01    rms(broyden)= 0.43981E+01
  rms(prec ) = 0.46814E+01
  weight for this iteration     100.00

 eigenvalues of (default mixing * dielectric matrix)
  average eigenvalue GAMMA=   1.3058
  1.3058

 Free energy of the ion-electron system (eV)
  ---------------------------------------------------
  alpha Z        PSCENC =       964.74099640
  Ewald energy   TEWEN  =     89927.01451154
  -Hartree energ DENC   =   -117994.52491827
  -exchange      EXHF   =         0.00000000
  -V(xc)+E(xc)   XCENC  =       150.92933065
  PAW double counting   =     28076.39611431   -27112.04980212
  entropy T*S    EENTRO =        -2.08113676
  eigenvalues    EBANDS =      -867.60263965
  atomic energy  EATOM  =     26604.67787617
  Solvation  Ediel_sol  =         0.00000000
  ---------------------------------------------------
  free energy    TOTEN  =      -252.49966774 eV

  energy without entropy =     -250.41853098  energy(sigma->0) =     -251.45909936


--------------------------------------------------------------------------------------------------------




----------------------------------------- Iteration    1(   6)  ---------------------------------------


    POTLOK:  cpu time    0.0560: real time    0.0558
    SETDIJ:  cpu time    0.0090: real time    0.0092
    EDDIAG:  cpu time   10.8074: real time   10.7999
  RMM-DIIS:  cpu time   29.1526: real time   29.1847
    ORTHCH:  cpu time    2.9595: real time    2.9717
       DOS:  cpu time    0.0040: real time    0.0033
    CHARGE:  cpu time    2.4076: real time    2.4066
    MIXING:  cpu time    0.0030: real time    0.0022
    --------------------------------------------
      LOOP:  cpu time   45.4001: real time   45.4648

 eigenvalue-minimisations  : 25863
 total energy-change (2. order) :-0.4085447E+02  (-0.7987335E+01)
 number of electron     372.9999936 magnetization 
 augmentation part      109.4186112 magnetization 

 Broyden mixing:
  rms(total) = 0.56156E+01    rms(broyden)= 0.56154E+01
  rms(prec ) = 0.68527E+01
  weight for this iteration     100.00

 eigenvalues of (default mixing * dielectric matrix)
  average eigenvalue GAMMA=   1.1470
  2.0213  0.2727

 Free energy of the ion-electron system (eV)
  ---------------------------------------------------
  alpha Z        PSCENC =       964.74099640
  Ewald energy   TEWEN  =     89927.01451154
  -Hartree energ DENC   =   -118285.19048753
  -exchange      EXHF   =         0.00000000
  -V(xc)+E(xc)   XCENC  =       149.07991607
  PAW double counting   =     30034.19248158   -29090.23676965
  entropy T*S    EENTRO =        -1.21499024
  eigenvalues    EBANDS =      -596.41766890
  atomic energy  EATOM  =     26604.67787617
  Solvation  Ediel_sol  =         0.00000000
  ---------------------------------------------------
  free energy    TOTEN  =      -293.35413455 eV

  energy without entropy =     -292.13914432  energy(sigma->0) =     -292.74663943


--------------------------------------------------------------------------------------------------------




----------------------------------------- Iteration    1(   7)  ---------------------------------------


    POTLOK:  cpu time    1.1948: real time    1.2742
    SETDIJ:  cpu time    0.1420: real time    0.1418
    EDDIAG:  cpu time   13.4620: real time   13.4938
  RMM-DIIS:  cpu time   29.0056: real time   29.1888
    ORTHCH:  cpu time    3.0675: real time    3.1353
       DOS:  cpu time    0.0040: real time    0.0039
    CHARGE:  cpu time    2.2187: real time    2.3224
    MIXING:  cpu time    0.0020: real time    0.0022
    --------------------------------------------
      LOOP:  cpu time   49.0985: real time   49.5859

 eigenvalue-minimisations  : 25349
 total energy-change (2. order) : 0.4130708E+02  (-0.2673829E+01)
 number of electron     372.9999973 magnetization 
 augmentation part      112.8059735 magnetization 

 Broyden mixing:
  rms(total) = 0.22621E+01    rms(broyden)= 0.22619E+01
  rms(prec ) = 0.28324E+01
  weight for this iteration     100.00

 eigenvalues of (default mixing * dielectric matrix)
  average eigenvalue GAMMA=   0.9607
  2.0564  0.5049  0.3209

 Free energy of the ion-electron system (eV)
  ---------------------------------------------------
  alpha Z        PSCENC =       964.74099640
  Ewald energy   TEWEN  =     89927.01451154
  -Hartree energ DENC   =   -118044.78657907
  -exchange      EXHF   =         0.00000000
  -V(xc)+E(xc)   XCENC  =       147.96096468
  PAW double counting   =     31933.61519980   -31013.12565286
  entropy T*S    EENTRO =        -1.83881050
  eigenvalues    EBANDS =      -770.30556056
  atomic energy  EATOM  =     26604.67787617
  Solvation  Ediel_sol  =         0.00000000
  ---------------------------------------------------
  free energy    TOTEN  =      -252.04705440 eV

  energy without entropy =     -250.20824390  energy(sigma->0) =     -251.12764915


--------------------------------------------------------------------------------------------------------




----------------------------------------- Iteration    1(   8)  ---------------------------------------


    POTLOK:  cpu time    0.0600: real time    0.0606
    SETDIJ:  cpu time    0.0090: real time    0.0092
    EDDIAG:  cpu time   11.1653: real time   11.2358
  RMM-DIIS:  cpu time   29.4795: real time   29.7188
    ORTHCH:  cpu time    3.5095: real time    3.5413
       DOS:  cpu time    0.0030: real time    0.0037
    CHARGE:  cpu time    2.3156: real time    2.3138
    MIXING:  cpu time    0.0030: real time    0.0023
    --------------------------------------------
      LOOP:  cpu time   46.5459: real time   46.9081

 eigenvalue-minimisations  : 25938
 total energy-change (2. order) :-0.8435262E+01  (-0.1889170E+01)
 number of electron     372.9999981 magnetization 
 augmentation part      112.3279304 magnetization 

 Broyden mixing:
  rms(total) = 0.32814E+01    rms(broyden)= 0.32812E+01
  rms(prec ) = 0.50152E+01
  weight for this iteration     100.00

 eigenvalues of (default mixing * dielectric matrix)
  average eigenvalue GAMMA=   0.8879
  2.1253  0.9651  0.2921  0.1692

 Free energy of the ion-electron system (eV)
  ---------------------------------------------------
  alpha Z        PSCENC =       964.74099640
  Ewald energy   TEWEN  =     89927.01451154
  -Hartree energ DENC   =   -118020.99275848
  -exchange      EXHF   =         0.00000000
  -V(xc)+E(xc)   XCENC  =       148.44971601
  PAW double counting   =     32157.50209916   -31237.61240738
  entropy T*S    EENTRO =        -1.41391446
  eigenvalues    EBANDS =      -802.84843549
  atomic energy  EATOM  =     26604.67787617
  Solvation  Ediel_sol  =         0.00000000
  ---------------------------------------------------
  free energy    TOTEN  =      -260.48231653 eV

  energy without entropy =     -259.06840207  energy(sigma->0) =     -259.77535930


--------------------------------------------------------------------------------------------------------




----------------------------------------- Iteration    1(   9)  ---------------------------------------


    POTLOK:  cpu time    1.7927: real time    1.7917
    SETDIJ:  cpu time    0.2070: real time    0.2062
    EDDIAG:  cpu time   11.2013: real time   11.2178
  RMM-DIIS:  cpu time   30.1554: real time   30.1990
    ORTHCH:  cpu time    3.0255: real time    3.0357
       DOS:  cpu time    0.0040: real time    0.0037
    CHARGE:  cpu time    2.3416: real time    2.3400
    MIXING:  cpu time    0.0030: real time    0.0027
    --------------------------------------------
      LOOP:  cpu time   48.7316: real time   48.8333

 eigenvalue-minimisations  : 25985
 total energy-change (2. order) : 0.4289658E+01  (-0.9772367E+00)
 number of electron     372.9999956 magnetization 
 augmentation part      112.3808507 magnetization 

 Broyden mixing:
  rms(total) = 0.29047E+01    rms(broyden)= 0.29045E+01
  rms(prec ) = 0.40698E+01
  weight for this iteration     100.00

 eigenvalues of (default mixing * dielectric matrix)
  average eigenvalue GAMMA=   0.8085
  2.2329  1.1633  0.2641  0.2641  0.1183

 Free energy of the ion-electron system (eV)
  ---------------------------------------------------
  alpha Z        PSCENC =       964.74099640
  Ewald energy   TEWEN  =     89927.01451154
  -Hartree energ DENC   =   -118061.81152852
  -exchange      EXHF   =         0.00000000
  -V(xc)+E(xc)   XCENC  =       148.86010078
  PAW double counting   =     32366.12948191   -31446.69111207
  entropy T*S    EENTRO =        -1.74607761
  eigenvalues    EBANDS =      -757.36690663
  atomic energy  EATOM  =     26604.67787617
  Solvation  Ediel_sol  =         0.00000000
  ---------------------------------------------------
  free energy    TOTEN  =      -256.19265803 eV

  energy without entropy =     -254.44658042  energy(sigma->0) =     -255.31961923


--------------------------------------------------------------------------------------------------------




----------------------------------------- Iteration    1(  10)  ---------------------------------------


    POTLOK:  cpu time    0.0590: real time    0.0594
    SETDIJ:  cpu time    0.0100: real time    0.0094
    EDDIAG:  cpu time   11.0813: real time   11.0747
  RMM-DIIS:  cpu time   29.8625: real time   29.8955
    ORTHCH:  cpu time    3.0505: real time    3.1748
       DOS:  cpu time    0.0030: real time    0.0037
    CHARGE:  cpu time    2.2777: real time    2.3511
    MIXING:  cpu time    0.0030: real time    0.0027
    --------------------------------------------
      LOOP:  cpu time   46.3490: real time   46.5913

 eigenvalue-minimisations  : 25257
 total energy-change (2. order) : 0.8922629E+01  (-0.3046749E+00)
 number of electron     372.9999974 magnetization 
 augmentation part      112.1964856 magnetization 

 Broyden mixing:
  rms(total) = 0.10964E+01    rms(broyden)= 0.10963E+01
  rms(prec ) = 0.12832E+01
  weight for this iteration     100.00

 eigenvalues of (default mixing * dielectric matrix)
  average eigenvalue GAMMA=   0.7346
  2.1403  1.1273  0.3432  0.3432  0.3406  0.1132

 Free energy of the ion-electron system (eV)
  ---------------------------------------------------
  alpha Z        PSCENC =       964.74099640
  Ewald energy   TEWEN  =     89927.01451154
  -Hartree energ DENC   =   -118071.44890939
  -exchange      EXHF   =         0.00000000
  -V(xc)+E(xc)   XCENC  =       149.09723131
  PAW double counting   =     32595.82650586   -31677.83235133
  entropy T*S    EENTRO =        -2.05659519
  eigenvalues    EBANDS =      -737.28929419
  atomic energy  EATOM  =     26604.67787617
  Solvation  Ediel_sol  =         0.00000000
  ---------------------------------------------------
  free energy    TOTEN  =      -247.27002883 eV

  energy without entropy =     -245.21343364  energy(sigma->0) =     -246.24173123


--------------------------------------------------------------------------------------------------------




----------------------------------------- Iteration    1(  11)  ---------------------------------------


    POTLOK:  cpu time    1.5788: real time    1.5788
    SETDIJ:  cpu time    0.1720: real time    0.1701
    EDDIAG:  cpu time   11.3353: real time   11.3271
  RMM-DIIS:  cpu time   29.7805: real time   29.8550
    ORTHCH:  cpu time    3.0575: real time    3.1207
       DOS:  cpu time    0.0030: real time    0.0036
    CHARGE:  cpu time    2.3066: real time    2.3043
    MIXING:  cpu time    0.0020: real time    0.0028
    --------------------------------------------
      LOOP:  cpu time   48.2367: real time   48.3763

 eigenvalue-minimisations  : 25692
 total energy-change (2. order) : 0.5994780E+00  (-0.1165699E+00)
 number of electron     372.9999977 magnetization 
 augmentation part      112.2278874 magnetization 

 Broyden mixing:
  rms(total) = 0.76637E+00    rms(broyden)= 0.76634E+00
  rms(prec ) = 0.87972E+00
  weight for this iteration     100.00

 eigenvalues of (default mixing * dielectric matrix)
  average eigenvalue GAMMA=   0.6833
  2.1047  1.0554  0.4854  0.4854  0.2696  0.2696  0.1129

 Free energy of the ion-electron system (eV)
  ---------------------------------------------------
  alpha Z        PSCENC =       964.74099640
  Ewald energy   TEWEN  =     89927.01451154
  -Hartree energ DENC   =   -118067.94928398
  -exchange      EXHF   =         0.00000000
  -V(xc)+E(xc)   XCENC  =       149.16853886
  PAW double counting   =     32516.59701227   -31597.84898468
  entropy T*S    EENTRO =        -2.11564406
  eigenvalues    EBANDS =      -740.95557338
  atomic energy  EATOM  =     26604.67787617
  Solvation  Ediel_sol  =         0.00000000
  ---------------------------------------------------
  free energy    TOTEN  =      -246.67055086 eV

  energy without entropy =     -244.55490680  energy(sigma->0) =     -245.61272883


--------------------------------------------------------------------------------------------------------




----------------------------------------- Iteration    1(  12)  ---------------------------------------


    POTLOK:  cpu time    0.0590: real time    0.0588
    SETDIJ:  cpu time    0.0090: real time    0.0093
    EDDIAG:  cpu time   10.8524: real time   10.8824
  RMM-DIIS:  cpu time   29.7555: real time   29.8546
    ORTHCH:  cpu time    3.0535: real time    3.0686
       DOS:  cpu time    0.0030: real time    0.0035
    CHARGE:  cpu time    2.4176: real time    2.4162
    MIXING:  cpu time    0.0030: real time    0.0028
    --------------------------------------------
      LOOP:  cpu time   46.1540: real time   46.3188

 eigenvalue-minimisations  : 25925
 total energy-change (2. order) : 0.4078871E+00  (-0.4497660E-01)
 number of electron     372.9999978 magnetization 
 augmentation part      112.2475731 magnetization 

 Broyden mixing:
  rms(total) = 0.46803E+00    rms(broyden)= 0.46801E+00
  rms(prec ) = 0.54773E+00
  weight for this iteration     100.00

 eigenvalues of (default mixing * dielectric matrix)
  average eigenvalue GAMMA=   0.7191
  2.1446  1.0851  0.7790  0.7790  0.2995  0.2995  0.1132  0.2527

 Free energy of the ion-electron system (eV)
  ---------------------------------------------------
  alpha Z        PSCENC =       964.74099640
  Ewald energy   TEWEN  =     89927.01451154
  -Hartree energ DENC   =   -118071.74500819
  -exchange      EXHF   =         0.00000000
  -V(xc)+E(xc)   XCENC  =       149.18655885
  PAW double counting   =     32481.68419950   -31562.70268471
  entropy T*S    EENTRO =        -2.15052760
  eigenvalues    EBANDS =      -736.96858575
  atomic energy  EATOM  =     26604.67787617
  Solvation  Ediel_sol  =         0.00000000
  ---------------------------------------------------
  free energy    TOTEN  =      -246.26266379 eV

  energy without entropy =     -244.11213619  energy(sigma->0) =     -245.18739999


--------------------------------------------------------------------------------------------------------




----------------------------------------- Iteration    1(  13)  ---------------------------------------


    POTLOK:  cpu time    1.1988: real time    1.2359
    SETDIJ:  cpu time    0.0100: real time    0.0093
    EDDIAG:  cpu time   10.8503: real time   10.8432
  RMM-DIIS:  cpu time   30.0504: real time   30.4335
    ORTHCH:  cpu time    6.1881: real time    6.2464
       DOS:  cpu time    0.0030: real time    0.0033
    CHARGE:  cpu time    2.3356: real time    2.3789
    MIXING:  cpu time    0.0030: real time    0.0030
    --------------------------------------------
      LOOP:  cpu time   50.6413: real time   51.2711

 eigenvalue-minimisations  : 25758
 total energy-change (2. order) : 0.1106471E+00  (-0.3113734E-01)
 number of electron     372.9999976 magnetization 
 augmentation part      112.2119612 magnetization 

 Broyden mixing:
  rms(total) = 0.27614E+00    rms(broyden)= 0.27611E+00
  rms(prec ) = 0.30119E+00
  weight for this iteration     100.00

 eigenvalues of (default mixing * dielectric matrix)
  average eigenvalue GAMMA=   0.7071
  2.1371  1.0858  0.9427  0.9427  0.1131  0.3026  0.3026  0.2687  0.2687

 Free energy of the ion-electron system (eV)
  ---------------------------------------------------
  alpha Z        PSCENC =       964.74099640
  Ewald energy   TEWEN  =     89927.01451154
  -Hartree energ DENC   =   -118084.28964617
  -exchange      EXHF   =         0.00000000
  -V(xc)+E(xc)   XCENC  =       149.21054255
  PAW double counting   =     32493.49530417   -31574.74255601
  entropy T*S    EENTRO =        -2.14144231
  eigenvalues    EBANDS =      -724.11760302
  atomic energy  EATOM  =     26604.67787617
  Solvation  Ediel_sol  =         0.00000000
  ---------------------------------------------------
  free energy    TOTEN  =      -246.15201668 eV

  energy without entropy =     -244.01057437  energy(sigma->0) =     -245.08129552


--------------------------------------------------------------------------------------------------------




----------------------------------------- Iteration    1(  14)  ---------------------------------------


    POTLOK:  cpu time    0.0580: real time    0.0588
    SETDIJ:  cpu time    0.0100: real time    0.0094
    EDDIAG:  cpu time   10.7334: real time   10.8270
  RMM-DIIS:  cpu time   30.4414: real time   30.7404
    ORTHCH:  cpu time    2.9985: real time    3.0371
       DOS:  cpu time    0.0040: real time    0.0037
    CHARGE:  cpu time    2.3616: real time    2.3900
    MIXING:  cpu time    0.0030: real time    0.0032
    --------------------------------------------
      LOOP:  cpu time   46.6109: real time   47.0921

 eigenvalue-minimisations  : 26602
 total energy-change (2. order) : 0.3644914E-01  (-0.8675734E-02)
 number of electron     372.9999975 magnetization 
 augmentation part      112.1841565 magnetization 

 Broyden mixing:
  rms(total) = 0.15397E+00    rms(broyden)= 0.15396E+00
  rms(prec ) = 0.17544E+00
  weight for this iteration     100.00

 eigenvalues of (default mixing * dielectric matrix)
  average eigenvalue GAMMA=   0.6951
  2.0155  1.0957  1.0957  0.8227  0.6063  0.1131  0.3646  0.2998  0.2998  0.2380

 Free energy of the ion-electron system (eV)
  ---------------------------------------------------
  alpha Z        PSCENC =       964.74099640
  Ewald energy   TEWEN  =     89927.01451154
  -Hartree energ DENC   =   -118094.18242793
  -exchange      EXHF   =         0.00000000
  -V(xc)+E(xc)   XCENC  =       149.25650290
  PAW double counting   =     32482.97835635   -31564.15181203
  entropy T*S    EENTRO =        -2.13973026
  eigenvalues    EBANDS =      -714.30984067
  atomic energy  EATOM  =     26604.67787617
  Solvation  Ediel_sol  =         0.00000000
  ---------------------------------------------------
  free energy    TOTEN  =      -246.11556754 eV

  energy without entropy =     -243.97583727  energy(sigma->0) =     -245.04570241


--------------------------------------------------------------------------------------------------------




----------------------------------------- Iteration    1(  15)  ---------------------------------------


    POTLOK:  cpu time    0.1820: real time    0.2668
    SETDIJ:  cpu time    0.0100: real time    0.0095
    EDDIAG:  cpu time   10.5114: real time   10.6821
  RMM-DIIS:  cpu time   30.0244: real time   30.0065
    ORTHCH:  cpu time    3.0335: real time    3.0324
       DOS:  cpu time    0.0040: real time    0.0036
    CHARGE:  cpu time    2.3406: real time    2.3398
    MIXING:  cpu time    0.0040: real time    0.0034
    --------------------------------------------
      LOOP:  cpu time   46.1120: real time   46.4084

 eigenvalue-minimisations  : 26717
 total energy-change (2. order) : 0.9363335E-02  (-0.1628172E-02)
 number of electron     372.9999975 magnetization 
 augmentation part      112.1710332 magnetization 

 Broyden mixing:
  rms(total) = 0.11538E+00    rms(broyden)= 0.11538E+00
  rms(prec ) = 0.13088E+00
  weight for this iteration     100.00

 eigenvalues of (default mixing * dielectric matrix)
  average eigenvalue GAMMA=   0.8253
  2.3208  2.3208  1.2092  0.8024  0.8024  0.1131  0.3847  0.3008  0.3008  0.2796
  0.2432

 Free energy of the ion-electron system (eV)
  ---------------------------------------------------
  alpha Z        PSCENC =       964.74099640
  Ewald energy   TEWEN  =     89927.01451154
  -Hartree energ DENC   =   -118099.96941967
  -exchange      EXHF   =         0.00000000
  -V(xc)+E(xc)   XCENC  =       149.32136149
  PAW double counting   =     32452.28516586   -31533.11299827
  entropy T*S    EENTRO =        -2.14317174
  eigenvalues    EBANDS =      -708.92052598
  atomic energy  EATOM  =     26604.67787617
  Solvation  Ediel_sol  =         0.00000000
  ---------------------------------------------------
  free energy    TOTEN  =      -246.10620420 eV

  energy without entropy =     -243.96303246  energy(sigma->0) =     -245.03461833


--------------------------------------------------------------------------------------------------------




----------------------------------------- Iteration    1(  16)  ---------------------------------------


    POTLOK:  cpu time    0.0590: real time    0.0594
    SETDIJ:  cpu time    0.0100: real time    0.0094
    EDDIAG:  cpu time   10.8963: real time   10.8905
  RMM-DIIS:  cpu time   29.0546: real time   29.2397
    ORTHCH:  cpu time    3.0745: real time    3.1090
       DOS:  cpu time    0.0030: real time    0.0037
    CHARGE:  cpu time    2.2607: real time    2.3022
    MIXING:  cpu time    0.0030: real time    0.0034
    --------------------------------------------
      LOOP:  cpu time   45.3621: real time   45.6483

 eigenvalue-minimisations  : 25448
 total energy-change (2. order) : 0.8493220E-02  (-0.1682787E-02)
 number of electron     372.9999976 magnetization 
 augmentation part      112.1470743 magnetization 

 Broyden mixing:
  rms(total) = 0.79879E-01    rms(broyden)= 0.79875E-01
  rms(prec ) = 0.10394E+00
  weight for this iteration     100.00

 eigenvalues of (default mixing * dielectric matrix)
  average eigenvalue GAMMA=   0.8118
  2.3615  2.3615  1.2524  0.8078  0.8078  0.5951  0.1131  0.2997  0.2997  0.3316
  0.2400  0.2713

 Free energy of the ion-electron system (eV)
  ---------------------------------------------------
  alpha Z        PSCENC =       964.74099640
  Ewald energy   TEWEN  =     89927.01451154
  -Hartree energ DENC   =   -118112.55105443
  -exchange      EXHF   =         0.00000000
  -V(xc)+E(xc)   XCENC  =       149.45099717
  PAW double counting   =     32407.55201385   -31487.86068706
  entropy T*S    EENTRO =        -2.14786146
  eigenvalues    EBANDS =      -696.97450317
[...]
    178       1.2559      1.74015
    179       1.2858      1.66479
    180       1.3462      1.46154
    181       1.3760      1.33651
    182       1.4026      1.21412
    183       1.4155      1.15144
    184       1.4284      1.08806
    185       1.4595      0.93297
    186       1.4732      0.86507
    187       1.4774      0.84437
    188       1.5825      0.40712
    189       1.6726      0.18796
    190       1.6854      0.16733
    191       1.7133      0.12927
    192       1.7178      0.12391
    193       1.7279      0.11263
    194       1.7476      0.09347
    195       1.7745      0.07219
    196       1.7984      0.05731
    197       1.8394      0.03839
    198       2.5467      0.00003
    199       2.9151      0.00000
    200       2.9184      0.00000
    201       2.9277      0.00000
    202       2.9489      0.00000
    203       2.9571      0.00000
    204       3.2833      0.00000
    205       3.3057      0.00000
    206       3.4978      0.00000
    207       3.7231      0.00000
    208       3.7299      0.00000
    209       3.9942      0.00000
    210       4.1292      0.00000
    211       4.2895      0.00000
    212       4.3029      0.00000
    213       4.3854      0.00000
    214       4.4043      0.00000
    215       4.5011      0.00000
    216       4.6200      0.00000
    217       4.7404      0.00000
    218       4.8933      0.00000
    219       5.1276      0.00000
    220       5.1997      0.00000
    221       5.4227      0.00000
    222       6.0544      0.00000
    223       6.0975      0.00000
    224       6.5838      0.00000
    225       6.7699      0.00000


--------------------------------------------------------------------------------------------------------


 soft charge-density along one line, spin component           1
         0         1         2         3         4         5         6         7         8         9
 total charge-density along one line
 
 pseudopotential strength for first ion, spin component:           1
 -6.029  -0.000  -0.000  -0.011   0.000  -6.145  -0.000  -0.000
 -0.000  -5.923   0.000  -0.000  -0.011  -0.000  -6.042   0.000
 -0.000   0.000  -5.918  -0.000  -0.000  -0.000   0.000  -6.037
 -0.011  -0.000  -0.000  -5.923  -0.000  -0.011  -0.000  -0.000
  0.000  -0.011  -0.000  -0.000  -6.029   0.000  -0.011  -0.000
 -6.145  -0.000  -0.000  -0.011   0.000  -6.244  -0.000  -0.000
 -0.000  -6.042   0.000  -0.000  -0.011  -0.000  -6.144   0.000
 -0.000   0.000  -6.037  -0.000  -0.000  -0.000   0.000  -6.139
 -0.011  -0.000  -0.000  -6.042  -0.000  -0.010  -0.000  -0.000
  0.000  -0.011  -0.000  -0.000  -6.145   0.000  -0.011  -0.000
  0.000  -0.000  -0.032   0.000  -0.000   0.000  -0.000  -0.032
  0.000  -0.000  -0.048   0.000  -0.000   0.000  -0.000  -0.047
 -0.000  -0.004   0.000  -0.000   0.000  -0.000  -0.003   0.000
 -0.000  -0.000  -0.008  -0.000   0.000  -0.000  -0.000  -0.008
  0.000  -0.000   0.000  -0.004  -0.000   0.000  -0.000   0.000
 -0.000  -0.003   0.000  -0.000   0.001  -0.000  -0.002   0.000
 -0.000  -0.000  -0.008  -0.000   0.000  -0.000  -0.000  -0.008
  0.001  -0.000   0.000  -0.003  -0.000   0.001  -0.000   0.000
 total augmentation occupancy for first ion, spin component:           1
  3.146  -0.001  -0.002  -0.196   0.000  -2.018   0.001   0.001   0.026   0.000  -0.001   0.000   0.000   0.000  -0.051  -0.000
 -0.001   3.903   0.003  -0.004  -0.197   0.001  -2.088  -0.002   0.002   0.033   0.000  -0.000  -0.258  -0.001  -0.000   0.013
 -0.002   0.003   4.192  -0.004  -0.001   0.001  -0.002  -2.590   0.003   0.001   0.768  -0.120  -0.000  -0.317   0.000   0.000
 -0.196  -0.004  -0.004   3.905  -0.001   0.033   0.002   0.003  -2.089   0.001  -0.002   0.000   0.000   0.001  -0.259  -0.000
  0.000  -0.197  -0.001  -0.001   3.147   0.000   0.026   0.001   0.001  -2.019  -0.000  -0.000  -0.051   0.000   0.000   0.003
 -2.018   0.001   0.001   0.033   0.000   2.532  -0.000  -0.001   0.089  -0.000   0.000   0.000  -0.000  -0.000   0.050  -0.000
  0.001  -2.088  -0.002   0.002   0.026  -0.000   2.100   0.001  -0.002   0.089  -0.000  -0.000   0.246   0.000   0.000  -0.017
  0.001  -0.002  -2.590   0.003   0.001  -0.001   0.001   2.753  -0.002  -0.001  -0.664   0.083   0.000   0.371   0.000  -0.000
  0.026   0.002   0.003  -2.089   0.001   0.089  -0.002  -0.002   2.102  -0.000   0.001   0.000  -0.000  -0.000   0.246  -0.000
  0.000   0.033   0.001   0.001  -2.019  -0.000   0.089  -0.001  -0.000   2.533   0.000   0.000   0.050  -0.000  -0.000  -0.003
 -0.001   0.000   0.768  -0.002  -0.000   0.000  -0.000  -0.664   0.001   0.000   2.235  -0.446   0.000   0.185   0.000  -0.000
  0.000  -0.000  -0.120   0.000  -0.000   0.000  -0.000   0.083   0.000   0.000  -0.446   0.110   0.000  -0.065   0.000   0.000
  0.000  -0.258  -0.000   0.000  -0.051  -0.000   0.246   0.000  -0.000   0.050   0.000   0.000   0.260   0.000   0.000  -0.014
  0.000  -0.001  -0.317   0.001   0.000  -0.000   0.000   0.371  -0.000  -0.000   0.185  -0.065   0.000   0.148   0.000  -0.000
 -0.051  -0.000   0.000  -0.259   0.000   0.050   0.000   0.000   0.246  -0.000   0.000   0.000   0.000   0.000   0.260  -0.000
 -0.000   0.013   0.000  -0.000   0.003  -0.000  -0.017  -0.000  -0.000  -0.003  -0.000   0.000  -0.014  -0.000  -0.000   0.001
  0.000   0.000   0.004  -0.000   0.000  -0.000  -0.000  -0.019   0.000  -0.000  -0.018   0.005  -0.000  -0.009   0.000   0.000
  0.003   0.000   0.000   0.013  -0.000  -0.003  -0.000   0.000  -0.017  -0.000  -0.000   0.000  -0.000  -0.000  -0.014   0.000


------------------------ aborting loop because EDIFF is reached ----------------------------------------


    CHARGE:  cpu time    2.3056: real time    2.3766
    FORLOC:  cpu time    0.0180: real time    0.0181
    FORNL :  cpu time   11.1863: real time   11.3115
    STRESS:  cpu time   34.0408: real time   34.2215
    FORCOR:  cpu time    0.0720: real time    0.0719
    FORHAR:  cpu time    0.0310: real time    0.0309
    MIXING:  cpu time    0.0080: real time    0.0086
    OFIELD:  cpu time    0.0000: real time    0.0000

  FORCE on cell =-STRESS in cart. coord.  units (eV):
  Direction    XX          YY          ZZ          XY          YZ          ZX
  --------------------------------------------------------------------------------------
  Alpha Z   964.74100   964.74100   964.74100
  Ewald  109665.25289109573.15672************    34.69231    10.28257    63.51310
  Hartree116247.97870116175.32585************    24.40024    10.17907    43.36595
  E(xc)   -1636.71683 -1636.70666 -1646.40062     0.02823    -0.02486     0.04981
  Local  ************************236733.92802   -59.80980   -22.40670  -108.28878
  n-local   133.98756   133.61168   118.55220     0.43939    -0.47268     0.50151
  augment  1880.50486  1879.79552  1928.37705    -0.16751     0.66211    -0.05809
  Kinetic  5362.20457  5358.17108  5492.53886     0.46499     1.56931     1.00057
  Fock        0.00000     0.00000     0.00000     0.00000     0.00000     0.00000
  -------------------------------------------------------------------------------------
  Total     -37.03611   -36.82005    -0.61122     0.04785    -0.21120     0.08408
  in kB     -44.16102   -43.90339    -0.72881     0.05706    -0.25183     0.10025
  external pressure =      -29.60 kB  Pullay stress =        0.00 kB


 VOLUME and BASIS-vectors are now :
 -----------------------------------------------------------------------------
  energy-cutoff  :      400.00
  volume of cell :     1343.68
      direct lattice vectors                 reciprocal lattice vectors
     8.421641764  0.000000000  0.000000000     0.118741693 -0.068555548  0.000000000
     4.210820882  7.293355709  0.000000000     0.000000000  0.137111097  0.000000000
     0.000000000  0.000000000 21.876241706     0.000000000  0.000000000  0.045711691

  length of vectors
     8.421641764  8.421641764 21.876241706     0.137111097  0.137111097  0.045711691


 FORCES acting on ions
    electron-ion (+dipol)            ewald-force                    non-local-force                 convergence-correction
 -----------------------------------------------------------------------------------------------
   0.337E-01 0.469E-01 0.233E+04   -.243E-01 -.488E-01 -.232E+04   -.522E-02 0.169E-02 -.108E+01   -.365E-03 0.364E-04 -.264E-03
   -.749E-01 -.342E+00 0.233E+04   0.649E-01 0.344E+00 -.232E+04   -.429E-02 -.584E-02 -.122E+01   -.106E-04 0.390E-04 -.474E-03
   0.470E-01 -.327E+00 0.233E+04   -.408E-01 0.330E+00 -.232E+04   0.696E-02 -.633E-02 -.121E+01   0.376E-03 0.788E-04 -.203E-03
   -.353E+00 0.758E-01 0.233E+04   0.360E+00 -.975E-01 -.232E+04   -.127E-01 0.458E-02 -.121E+01   -.195E-03 0.813E-04 -.290E-03
   0.417E-02 -.443E-01 0.232E+04   -.227E-02 0.363E-01 -.232E+04   -.161E-02 0.448E-02 -.125E+01   0.219E-03 0.107E-03 -.329E-03
   0.355E+00 0.111E+00 0.233E+04   -.358E+00 -.129E+00 -.232E+04   0.107E-01 0.256E-02 -.121E+01   -.233E-04 -.213E-03 -.201E-03
   -.284E+00 0.210E+00 0.232E+04   0.299E+00 -.218E+00 -.232E+04   -.614E-02 0.142E-01 -.121E+01   0.423E-04 0.182E-03 -.140E-03
   0.315E+00 0.223E+00 0.233E+04   -.325E+00 -.229E+00 -.232E+04   0.374E-02 0.123E-01 -.121E+01   -.189E-03 -.157E-03 -.319E-03
   -.243E-01 -.224E-01 0.233E+04   0.261E-01 0.146E-01 -.232E+04   -.972E-03 0.329E-02 -.123E+01   0.147E-03 -.154E-03 -.236E-03
   -.300E+01 -.179E+01 0.833E+03   0.288E+01 0.171E+01 -.833E+03   0.105E+00 0.837E-01 -.312E+00   -.424E-03 0.154E-03 0.412E-03
   -.176E+00 -.292E+01 0.833E+03   0.185E+00 0.295E+01 -.833E+03   -.628E-02 0.356E-01 -.297E+00   0.469E-03 0.965E-04 0.465E-03
   0.331E+01 -.173E+01 0.833E+03   -.320E+01 0.166E+01 -.833E+03   -.113E+00 0.836E-01 -.311E+00   -.460E-04 -.125E-03 0.399E-03
   -.259E+01 0.843E+00 0.833E+03   0.263E+01 -.873E+00 -.832E+03   0.711E-02 0.212E-01 -.291E+00   -.229E-04 0.433E-03 0.684E-03
   0.265E+01 0.113E+01 0.833E+03   -.269E+01 -.116E+01 -.833E+03   -.177E-01 0.158E-01 -.277E+00   0.242E-04 -.110E-03 0.491E-03
   0.244E-01 0.298E+00 0.836E+03   -.231E-01 -.337E+00 -.836E+03   -.812E-02 0.478E-01 -.410E+00   -.119E-05 -.247E-04 0.514E-03
   0.287E+00 0.375E+01 0.833E+03   -.283E+00 -.362E+01 -.832E+03   -.106E-01 -.111E+00 -.290E+00   -.478E-03 -.523E-04 0.573E-03
   0.588E+00 -.493E+00 0.836E+03   -.609E+00 0.486E+00 -.836E+03   0.110E-01 0.208E-01 -.406E+00   0.894E-04 -.322E-03 0.473E-03
   -.751E+00 -.525E+00 0.836E+03   0.782E+00 0.526E+00 -.836E+03   -.214E-01 0.177E-01 -.407E+00   0.389E-03 -.471E-04 0.649E-03
   -.984E+00 0.198E+01 -.667E+03   0.996E+00 -.202E+01 0.666E+03   -.203E-01 0.504E-01 0.528E+00   -.191E-03 0.686E-04 0.154E-02
   -.249E+00 -.737E+00 -.687E+03   0.655E+00 0.970E+00 0.687E+03   -.401E+00 -.237E+00 0.151E+00   -.596E-05 0.429E-03 0.162E-02
   0.119E+01 0.961E+00 -.685E+03   -.163E+01 -.711E+00 0.685E+03   0.438E+00 -.252E+00 0.800E-01   0.192E-03 -.439E-04 0.143E-02
   0.665E+00 -.104E+01 -.670E+03   -.580E+00 0.101E+01 0.669E+03   -.908E-01 0.454E-01 0.416E+00   0.268E-03 0.237E-03 0.159E-02
   0.202E+01 -.301E-01 -.688E+03   -.202E+01 -.467E+00 0.687E+03   -.122E-02 0.506E+00 0.942E-01   -.320E-03 0.232E-03 0.155E-02
   -.233E+01 -.159E+01 -.667E+03   0.226E+01 0.156E+01 0.667E+03   0.769E-01 0.288E-01 0.410E+00   0.527E-04 -.173E-03 0.158E-02
   -.120E+01 0.232E+00 -.669E+03   0.123E+01 -.214E+00 0.669E+03   -.334E-01 -.140E-01 0.502E+00   -.909E-04 -.296E-03 0.156E-02
   0.164E+01 -.130E+01 -.669E+03   -.167E+01 0.131E+01 0.668E+03   0.247E-01 -.143E-01 0.512E+00   -.420E-03 -.217E-03 0.173E-02
   -.267E+00 0.165E+01 -.670E+03   0.264E+00 -.156E+01 0.669E+03   0.210E-02 -.923E-01 0.409E+00   0.510E-03 -.217E-03 0.166E-02
   -.377E+01 0.240E+01 -.219E+04   0.376E+01 -.238E+01 0.219E+04   0.111E-01 -.152E-01 0.111E+01   -.243E-03 -.201E-03 0.948E-03
   0.195E+02 0.310E+02 -.216E+04   -.196E+02 -.310E+02 0.216E+04   0.118E+00 0.597E-01 0.118E+01   -.774E-04 -.146E-03 0.107E-02
   -.159E+02 0.427E+02 -.215E+04   0.159E+02 -.427E+02 0.215E+04   -.826E-01 0.344E-01 0.113E+01   0.320E-03 -.356E-03 0.854E-03
   0.327E+02 0.988E-01 -.216E+04   -.328E+02 -.119E+00 0.216E+04   0.108E+00 0.201E-01 0.117E+01   -.112E-03 0.254E-03 0.885E-03
   0.166E+02 0.231E+01 -.208E+04   -.166E+02 -.235E+01 0.208E+04   -.626E-02 0.519E-01 -.494E+01   -.589E-04 0.224E-03 0.637E-03
   -.487E+02 0.282E+01 -.213E+04   0.488E+02 -.287E+01 0.213E+04   -.139E+00 0.601E-01 0.133E+01   0.171E-03 -.556E-04 0.895E-03
   0.233E+02 -.324E+02 -.216E+04   -.233E+02 0.325E+02 0.216E+04   0.983E-02 -.122E+00 0.115E+01   -.880E-04 0.202E-03 0.688E-03
   -.164E+02 -.443E+02 -.214E+04   0.163E+02 0.444E+02 0.214E+04   0.504E-01 -.136E+00 0.116E+01   -.211E-03 0.926E-04 0.906E-03
   -.707E+01 -.393E+01 -.219E+04   0.708E+01 0.397E+01 0.218E+04   -.937E-02 -.402E-01 0.109E+01   0.299E-03 -.466E-04 0.883E-03
   0.607E+02 0.173E+02 -.946E+03   -.610E+02 -.174E+02 0.948E+03   0.276E+00 0.102E+00 -.142E+01   -.128E-04 0.259E-04 -.179E-03
   -.632E+02 -.180E+02 -.897E+03   0.640E+02 0.183E+02 0.897E+03   -.742E+00 -.274E+00 0.215E+00   -.304E-04 0.266E-06 -.222E-03
   0.489E+02 -.334E+02 -.246E+03   -.531E+02 0.369E+02 0.247E+03   0.419E+01 -.351E+01 -.118E+01   -.176E-05 0.747E-05 -.593E-04
   0.235E+02 0.544E+02 -.245E+03   -.252E+02 -.596E+02 0.246E+03   0.168E+01 0.522E+01 -.110E+01   0.551E-06 0.499E-05 -.494E-04
   0.103E+01 0.258E+01 -.227E+03   -.180E+01 -.301E+01 0.232E+03   0.762E+00 0.433E+00 -.526E+01   -.679E-05 -.667E-06 -.382E-04
   -.493E+02 0.325E+02 -.218E+03   0.535E+02 -.358E+02 0.217E+03   -.419E+01 0.333E+01 0.127E+01   -.406E-05 -.738E-06 -.574E-04
   -.232E+02 -.548E+02 -.218E+03   0.248E+02 0.600E+02 0.217E+03   -.163E+01 -.519E+01 0.982E+00   -.716E-05 -.266E-06 -.595E-04
 -----------------------------------------------------------------------------------------------
   -.354E+00 -.138E+00 0.127E+02   0.355E-14 -.213E-13 -.173E-11   0.339E+00 0.292E+00 -.128E+02   -.678E-04 0.269E-04 0.236E-01
 
 
 POSITION                                       TOTAL-FORCE (eV/Angst)
 -----------------------------------------------------------------------------------
      0.00000      0.00000      7.50000         0.004100     -0.003824     -0.118661
      2.80721      0.00000      7.50000        -0.013900     -0.007062     -0.055128
      5.61443      0.00000      7.50000         0.013862     -0.006393     -0.049957
      1.40361      2.43112      7.50000        -0.005832     -0.020609     -0.054051
      4.21082      2.43112      7.50000         0.000841     -0.007054     -0.054675
      7.01803      2.43112      7.50000         0.008220     -0.019078     -0.052809
      2.80721      4.86224      7.50000         0.008767      0.002871     -0.051809
      5.61443      4.86224      7.50000        -0.005749      0.003037     -0.052243
      8.42164      4.86224      7.50000         0.001309     -0.008242     -0.047565
      1.40361      0.81037      9.79208        -0.015608      0.000679     -0.029811
      4.21082      0.81037      9.79208         0.003982      0.066603      0.195110
      7.01803      0.81037      9.79208         0.002525      0.003132     -0.024532
      2.80721      3.24149      9.79208         0.052662     -0.011797      0.201073
      5.61443      3.24149      9.79208        -0.052358     -0.019943      0.208160
      8.42164      3.24149      9.79208        -0.006498      0.005178      0.016184
      4.21082      5.67261      9.79208        -0.007269      0.012362     -0.019984
      7.01803      5.67261      9.79208        -0.009806      0.010196      0.021068
      9.82525      5.67261      9.79208         0.010459      0.015256      0.022272
      8.41950      1.63163     12.05042        -0.008787      0.007408     -0.001955
      2.82083      1.64013     12.08815         0.005192     -0.007492      0.000739
      5.59352      1.64186     12.09183         0.001829     -0.005813     -0.007353
      9.82560      4.06178     12.05470        -0.005300      0.003774      0.001078
      4.20848      4.04022     12.09368        -0.001108      0.005180      0.001599
      7.01287      4.06262     12.05612         0.003786     -0.001570     -0.002884
     11.22643      6.49381     12.05281        -0.003944      0.000073     -0.011849
      5.61165      6.49287     12.05173         0.001655      0.000814     -0.011442
      8.41938      6.49678     12.05552        -0.000905     -0.006232     -0.009884
      8.41330      0.02203     14.35093         0.003177     -0.002729      0.009306
      2.79532      0.01880     14.34965         0.001969      0.003595      0.005017
      5.60919      0.01952     14.35288         0.000872     -0.000473      0.000999
      9.81457      2.45300     14.34892         0.009221     -0.003391      0.000674
      4.20638      2.45070     14.60579        -0.000612      0.006630     -0.011629
      7.01473      2.45173     14.35006        -0.000963     -0.001297     -0.007430
     11.22048      4.88657     14.35256         0.003749      0.002861      0.001501
      5.60440      4.88690     14.35331         0.006907      0.000746     -0.003057
      8.41494      4.88625     14.34978         0.004038     -0.004147      0.003587
      4.10763      2.40101     16.69896        -0.011440      0.004933      0.000505
      5.38602      2.76348     17.42009        -0.003291     -0.002331     -0.013674
      3.28795      3.09408     16.93855        -0.002811     -0.001882     -0.003218
      3.78386      1.37360     16.92108         0.004859     -0.008811     -0.003630
      5.21645      2.67039     18.50996        -0.006743     -0.002815      0.012044
      6.21977      2.09340     17.16137         0.008907     -0.015389      0.001153
      5.70118      3.79802     17.22225         0.000040      0.013045     -0.002836
 -----------------------------------------------------------------------------------
    total drift:                               -0.014190      0.154370     -0.055449


--------------------------------------------------------------------------------------------------------



  FREE ENERGIE OF THE ION-ELECTRON SYSTEM (eV)
  ---------------------------------------------------
  free  energy   TOTEN  =      -246.09412720 eV

  energy  without entropy=     -243.94656765  energy(sigma->0) =     -245.02034743
 


--------------------------------------------------------------------------------------------------------


    POTLOK:  cpu time    0.0690: real time    0.0692


--------------------------------------------------------------------------------------------------------


 stress matrix after NEB project (eV)
    -37.03611      0.04785      0.08408
      0.04785    -36.82005     -0.21120
      0.08408     -0.21120     -0.61122
  FORCES: max atom, RMS     0.017818    0.007832
  FORCE total and by dimension    0.051357    0.015389
  Stress total and by dimension   52.229024   37.036112
     LOOP+:  cpu time 1822.0270: real time 1835.4307
    4ORBIT:  cpu time    0.0000: real time    0.0000

 total amount of memory used by VASP on root node   292342. kBytes
========================================================================

   base      :      30000. kBytes
   nonlr-proj:       4881. kBytes
   fftplans  :       4497. kBytes
   grid      :       7849. kBytes
   one-center:        171. kBytes
   wavefun   :     244944. kBytes
 
  
  
 General timing and accounting informations for this job:
 ========================================================
  
                  Total CPU time used (sec):     1854.703
                            User time (sec):     1799.549
                          System time (sec):       55.154
                         Elapsed time (sec):     1868.569
  
                   Maximum memory used (kb):      331620.
                   Average memory used (kb):           0.
  
                          Minor page faults:     24700243
                          Major page faults:           13
                 Voluntary context switches:         3730
