  40  40   0   0
  0.3359208E+02  0.8421642E-09  0.8421642E-09  0.2187624E-08  0.5000000E-15
  1.000000000000000E-004
  CAR 
 unknown system                          
      7.91874135    -11.59526286  301      1.29730504      1.00000000
    -11.595  0.0000E+00  0.0000E+00
    -11.530  0.0000E+00  0.0000E+00
    -11.465  0.0000E+00  0.0000E+00
    -11.400  0.9754E-02  0.6345E-03
    -11.335  0.8934E-02  0.1216E-02
    -11.270  0.1711E-01  0.2328E-02
    -11.205  0.3273E-01  0.4457E-02
    -11.140  0.6253E-01  0.8525E-02
    -11.075  0.1191E+00  0.1627E-01
    -11.010  0.2257E+00  0.3096E-01
    -10.945  0.4234E+00  0.5849E-01
    -10.880  0.7791E+00  0.1092E+00
    -10.815  0.1385E+01  0.1993E+00
    -10.750  0.2316E+01  0.3499E+00
    -10.685  0.3505E+01  0.5779E+00
    -10.620  0.4577E+01  0.8757E+00
    -10.555  0.4950E+01  0.1198E+01
    -10.489  0.4371E+01  0.1482E+01
    -10.424  0.3221E+01  0.1691E+01
    -10.359  0.2071E+01  0.1826E+01
    -10.294  0.1217E+01  0.1905E+01
    -10.229  0.6782E+00  0.1949E+01
    -10.164  0.3665E+00  0.1973E+01
    -10.099  0.1948E+00  0.1986E+01
    -10.034  0.1027E+00  0.1993E+01
     -9.969  0.5384E-01  0.1996E+01
     -9.904  0.2817E-01  0.1998E+01
     -9.839  0.1472E-01  0.1999E+01
     -9.774  0.0000E+00  0.2000E+01
     -9.709  0.0000E+00  0.2000E+01
     -9.644  0.0000E+00  0.2000E+01
     -9.579  0.0000E+00  0.2000E+01
     -9.514  0.0000E+00  0.2000E+01
     -9.449  0.0000E+00  0.2000E+01
     -9.384  0.0000E+00  0.2000E+01
     -9.319  0.0000E+00  0.2000E+01
     -9.254  0.0000E+00  0.2000E+01
     -9.189  0.0000E+00  0.2000E+01
     -9.123  0.0000E+00  0.2000E+01
     -9.058  0.0000E+00  0.2000E+01
     -8.993  0.0000E+00  0.2000E+01
     -8.928  0.0000E+00  0.2000E+01
     -8.863  0.0000E+00  0.2000E+01
     -8.798  0.3673E-03  0.2000E+01
     -8.733  0.7530E-03  0.2000E+01
     -8.668  0.1026E-02  0.2000E+01
     -8.603  0.3370E-02  0.2000E+01
     -8.538  0.5046E-02  0.2001E+01
     -8.473  0.1050E-01  0.2001E+01
     -8.408  0.1917E-01  0.2003E+01
     -8.343  0.3709E-01  0.2005E+01
     -8.278  0.6996E-01  0.2010E+01
     -8.213  0.1292E+00  0.2018E+01
     -8.148  0.2330E+00  0.2033E+01
     -8.083  0.4011E+00  0.2059E+01
     -8.018  0.6453E+00  0.2101E+01
     -7.953  0.9455E+00  0.2163E+01
     -7.888  0.1257E+01  0.2244E+01
     -7.823  0.1524E+01  0.2344E+01
     -7.758  0.1716E+01  0.2455E+01
     -7.692  0.1828E+01  0.2574E+01
     -7.627  0.1895E+01  0.2697E+01
     -7.562  0.1959E+01  0.2825E+01
     -7.497  0.2037E+01  0.2957E+01
     -7.432  0.2094E+01  0.3094E+01
     -7.367  0.2095E+01  0.3230E+01
     -7.302  0.2063E+01  0.3364E+01
     -7.237  0.2049E+01  0.3497E+01
     -7.172  0.2086E+01  0.3633E+01
     -7.107  0.2178E+01  0.3775E+01
     -7.042  0.2299E+01  0.3924E+01
     -6.977  0.2389E+01  0.4080E+01
     -6.912  0.2428E+01  0.4238E+01
     -6.847  0.2463E+01  0.4398E+01
     -6.782  0.2558E+01  0.4564E+01
     -6.717  0.2768E+01  0.4745E+01
     -6.652  0.3123E+01  0.4948E+01
     -6.587  0.3597E+01  0.5182E+01
     -6.522  0.4071E+01  0.5447E+01
     -6.457  0.4418E+01  0.5734E+01
     -6.392  0.4584E+01  0.6032E+01
     -6.326  0.4637E+01  0.6334E+01
     -6.261  0.4681E+01  0.6639E+01
     -6.196  0.4768E+01  0.6949E+01
     -6.131  0.4887E+01  0.7267E+01
     -6.066  0.5062E+01  0.7596E+01
     -6.001  0.5335E+01  0.7943E+01
     -5.936  0.5687E+01  0.8313E+01
     -5.871  0.6027E+01  0.8705E+01
     -5.806  0.6317E+01  0.9116E+01
     -5.741  0.6637E+01  0.9548E+01
     -5.676  0.7084E+01  0.1001E+02
     -5.611  0.7780E+01  0.1052E+02
     -5.546  0.8880E+01  0.1109E+02
     -5.481  0.1054E+02  0.1178E+02
     -5.416  0.1277E+02  0.1261E+02
     -5.351  0.1533E+02  0.1361E+02
     -5.286  0.1785E+02  0.1477E+02
     -5.221  0.2012E+02  0.1608E+02
     -5.156  0.2218E+02  0.1752E+02
     -5.091  0.2419E+02  0.1909E+02
     -5.026  0.2629E+02  0.2080E+02
     -4.961  0.2828E+02  0.2264E+02
     -4.895  0.2984E+02  0.2459E+02
     -4.830  0.3073E+02  0.2658E+02
     -4.765  0.3118E+02  0.2861E+02
     -4.700  0.3191E+02  0.3069E+02
     -4.635  0.3350E+02  0.3287E+02
     -4.570  0.3605E+02  0.3521E+02
     -4.505  0.3928E+02  0.3777E+02
     -4.440  0.4291E+02  0.4056E+02
     -4.375  0.4657E+02  0.4359E+02
     -4.310  0.4971E+02  0.4682E+02
     -4.245  0.5181E+02  0.5020E+02
     -4.180  0.5285E+02  0.5363E+02
     -4.115  0.5331E+02  0.5710E+02
     -4.050  0.5368E+02  0.6060E+02
     -3.985  0.5401E+02  0.6411E+02
     -3.920  0.5366E+02  0.6760E+02
     -3.855  0.5182E+02  0.7097E+02
     -3.790  0.4833E+02  0.7412E+02
     -3.725  0.4391E+02  0.7697E+02
     -3.660  0.3973E+02  0.7956E+02
     -3.595  0.3695E+02  0.8196E+02
     -3.529  0.3635E+02  0.8433E+02
     -3.464  0.3805E+02  0.8681E+02
     -3.399  0.4120E+02  0.8949E+02
     -3.334  0.4438E+02  0.9238E+02
     -3.269  0.4648E+02  0.9540E+02
     -3.204  0.4740E+02  0.9849E+02
     -3.139  0.4785E+02  0.1016E+03
     -3.074  0.4838E+02  0.1048E+03
     -3.009  0.4882E+02  0.1079E+03
     -2.944  0.4860E+02  0.1111E+03
     -2.879  0.4745E+02  0.1142E+03
     -2.814  0.4574E+02  0.1172E+03
     -2.749  0.4423E+02  0.1200E+03
     -2.684  0.4371E+02  0.1229E+03
     -2.619  0.4488E+02  0.1258E+03
     -2.554  0.4772E+02  0.1289E+03
     -2.489  0.5150E+02  0.1323E+03
     -2.424  0.5543E+02  0.1359E+03
     -2.359  0.5914E+02  0.1397E+03
     -2.294  0.6246E+02  0.1438E+03
     -2.229  0.6508E+02  0.1480E+03
     -2.163  0.6690E+02  0.1524E+03
     -2.098  0.6840E+02  0.1568E+03
     -2.033  0.7022E+02  0.1614E+03
     -1.968  0.7252E+02  0.1661E+03
     -1.903  0.7485E+02  0.1710E+03
     -1.838  0.7656E+02  0.1760E+03
     -1.773  0.7754E+02  0.1810E+03
     -1.708  0.7799E+02  0.1861E+03
     -1.643  0.7799E+02  0.1911E+03
     -1.578  0.7742E+02  0.1962E+03
     -1.513  0.7602E+02  0.2011E+03
     -1.448  0.7332E+02  0.2059E+03
     -1.383  0.6917E+02  0.2104E+03
     -1.318  0.6408E+02  0.2146E+03
     -1.253  0.5896E+02  0.2184E+03
     -1.188  0.5446E+02  0.2220E+03
     -1.123  0.5091E+02  0.2253E+03
     -1.058  0.4869E+02  0.2284E+03
     -0.993  0.4820E+02  0.2316E+03
     -0.928  0.4972E+02  0.2348E+03
     -0.863  0.5307E+02  0.2383E+03
     -0.798  0.5726E+02  0.2420E+03
     -0.732  0.6056E+02  0.2459E+03
     -0.667  0.6140E+02  0.2499E+03
     -0.602  0.5950E+02  0.2538E+03
     -0.537  0.5611E+02  0.2575E+03
     -0.472  0.5291E+02  0.2609E+03
     -0.407  0.5096E+02  0.2642E+03
     -0.342  0.5040E+02  0.2675E+03
     -0.277  0.5088E+02  0.2708E+03
     -0.212  0.5201E+02  0.2742E+03
     -0.147  0.5363E+02  0.2777E+03
     -0.082  0.5577E+02  0.2813E+03
     -0.017  0.5841E+02  0.2851E+03
      0.048  0.6128E+02  0.2891E+03
      0.113  0.6383E+02  0.2933E+03
      0.178  0.6542E+02  0.2975E+03
      0.243  0.6545E+02  0.3018E+03
      0.308  0.6384E+02  0.3059E+03
      0.373  0.6099E+02  0.3099E+03
      0.438  0.5775E+02  0.3136E+03
      0.503  0.5512E+02  0.3172E+03
      0.568  0.5384E+02  0.3207E+03
      0.634  0.5392E+02  0.3242E+03
      0.699  0.5479E+02  0.3278E+03
      0.764  0.5582E+02  0.3314E+03
      0.829  0.5707E+02  0.3352E+03
      0.894  0.5922E+02  0.3390E+03
      0.959  0.6271E+02  0.3431E+03
      1.024  0.6700E+02  0.3475E+03
      1.089  0.7075E+02  0.3521E+03
      1.154  0.7279E+02  0.3568E+03
      1.219  0.7264E+02  0.3615E+03
      1.284  0.7027E+02  0.3661E+03
      1.349  0.6589E+02  0.3704E+03
      1.414  0.6010E+02  0.3743E+03
      1.479  0.5374E+02  0.3778E+03
      1.544  0.4726E+02  0.3809E+03
      1.609  0.4058E+02  0.3835E+03
      1.674  0.3385E+02  0.3857E+03
      1.739  0.2775E+02  0.3875E+03
      1.804  0.2287E+02  0.3890E+03
      1.869  0.1929E+02  0.3903E+03
      1.934  0.1677E+02  0.3914E+03
      1.999  0.1503E+02  0.3923E+03
      2.065  0.1387E+02  0.3932E+03
      2.130  0.1306E+02  0.3941E+03
      2.195  0.1246E+02  0.3949E+03
      2.260  0.1212E+02  0.3957E+03
      2.325  0.1200E+02  0.3965E+03
      2.390  0.1189E+02  0.3973E+03
      2.455  0.1158E+02  0.3980E+03
      2.520  0.1109E+02  0.3987E+03
      2.585  0.1066E+02  0.3994E+03
      2.650  0.1047E+02  0.4001E+03
      2.715  0.1059E+02  0.4008E+03
      2.780  0.1097E+02  0.4015E+03
      2.845  0.1142E+02  0.4023E+03
      2.910  0.1180E+02  0.4030E+03
      2.975  0.1205E+02  0.4038E+03
      3.040  0.1217E+02  0.4046E+03
      3.105  0.1217E+02  0.4054E+03
      3.170  0.1198E+02  0.4062E+03
      3.235  0.1157E+02  0.4069E+03
      3.300  0.1113E+02  0.4076E+03
      3.365  0.1093E+02  0.4084E+03
      3.431  0.1105E+02  0.4091E+03
      3.496  0.1138E+02  0.4098E+03
      3.561  0.1178E+02  0.4106E+03
      3.626  0.1215E+02  0.4114E+03
      3.691  0.1229E+02  0.4122E+03
      3.756  0.1206E+02  0.4130E+03
      3.821  0.1155E+02  0.4137E+03
      3.886  0.1105E+02  0.4144E+03
      3.951  0.1074E+02  0.4151E+03
      4.016  0.1075E+02  0.4158E+03
      4.081  0.1111E+02  0.4166E+03
      4.146  0.1173E+02  0.4173E+03
      4.211  0.1239E+02  0.4181E+03
      4.276  0.1270E+02  0.4189E+03
      4.341  0.1245E+02  0.4198E+03
      4.406  0.1176E+02  0.4205E+03
      4.471  0.1108E+02  0.4212E+03
      4.536  0.1085E+02  0.4220E+03
      4.601  0.1115E+02  0.4227E+03
      4.666  0.1162E+02  0.4234E+03
      4.731  0.1172E+02  0.4242E+03
      4.797  0.1125E+02  0.4249E+03
      4.862  0.1046E+02  0.4256E+03
      4.927  0.9718E+01  0.4262E+03
      4.992  0.9214E+01  0.4268E+03
      5.057  0.9013E+01  0.4274E+03
      5.122  0.9109E+01  0.4280E+03
      5.187  0.9464E+01  0.4286E+03
      5.252  0.1000E+02  0.4293E+03
      5.317  0.1061E+02  0.4300E+03
      5.382  0.1121E+02  0.4307E+03
      5.447  0.1172E+02  0.4315E+03
      5.512  0.1204E+02  0.4323E+03
      5.577  0.1197E+02  0.4330E+03
      5.642  0.1133E+02  0.4338E+03
      5.707  0.1016E+02  0.4344E+03
      5.772  0.8774E+01  0.4350E+03
      5.837  0.7483E+01  0.4355E+03
      5.902  0.6463E+01  0.4359E+03
      5.967  0.5696E+01  0.4363E+03
      6.032  0.5097E+01  0.4366E+03
      6.097  0.4648E+01  0.4369E+03
      6.162  0.4343E+01  0.4372E+03
      6.228  0.4139E+01  0.4375E+03
      6.293  0.3987E+01  0.4377E+03
      6.358  0.3903E+01  0.4380E+03
      6.423  0.3919E+01  0.4382E+03
      6.488  0.3992E+01  0.4385E+03
      6.553  0.4014E+01  0.4388E+03
      6.618  0.3914E+01  0.4390E+03
      6.683  0.3661E+01  0.4393E+03
      6.748  0.3233E+01  0.4395E+03
      6.813  0.2655E+01  0.4396E+03
      6.878  0.2013E+01  0.4398E+03
      6.943  0.1410E+01  0.4399E+03
      7.008  0.9176E+00  0.4399E+03
      7.073  0.5563E+00  0.4400E+03
      7.138  0.3195E+00  0.4400E+03
      7.203  0.1760E+00  0.4400E+03
      7.268  0.9404E-01  0.4400E+03
      7.333  0.4871E-01  0.4400E+03
      7.398  0.2484E-01  0.4400E+03
      7.463  0.1195E-01  0.4400E+03
      7.528  0.4503E-02  0.4400E+03
      7.594  0.1910E-02  0.4400E+03
      7.659  0.7661E-03  0.4400E+03
      7.724  0.0000E+00  0.4400E+03
      7.789  0.0000E+00  0.4400E+03
      7.854  0.0000E+00  0.4400E+03
      7.919  0.0000E+00  0.4400E+03
