unknown system                          
           1
     8.421642    0.000000    0.000000
     4.210821    7.293356    0.000000
     0.000000    0.000000   21.876242
   Pt   C    H 
  36   1   3
Direct configuration=     1
   0.00000000  0.00000000  0.34283768
   0.33333333  0.00000000  0.34283768
   0.66666667  0.00000000  0.34283768
   0.00000000  0.33333333  0.34283768
   0.33333333  0.33333333  0.34283768
   0.66666667  0.33333333  0.34283768
   0.00000000  0.66666667  0.34283768
   0.33333333  0.66666667  0.34283768
   0.66666667  0.66666667  0.34283768
   0.11111111  0.11111111  0.44761256
   0.44444444  0.11111111  0.44761256
   0.77777778  0.11111111  0.44761256
   0.11111111  0.44444444  0.44761256
   0.44444444  0.44444444  0.44761256
   0.77777778  0.44444444  0.44761256
   0.11111111  0.77777778  0.44761256
   0.44444444  0.77777778  0.44761256
   0.77777778  0.77777778  0.44761256
   0.88768084  0.22385623  0.55081838
   0.22262956  0.22485013  0.55255386
   0.55180616  0.22498746  0.55242940
   0.88806903  0.55698725  0.55095161
   0.22251655  0.55442027  0.55251907
   0.55435930  0.55695372  0.55099908
   0.88776732  0.89045419  0.55081174
   0.22116943  0.89038639  0.55088887
   0.55435864  0.89057582  0.55098278
   0.99729754  0.00322725  0.65598427
   0.33054062  0.00277141  0.65587566
   0.66466105  0.00284145  0.65585100
   0.99683920  0.33636318  0.65583676
   0.33065584  0.33678897  0.66602411
   0.66479558  0.33641287  0.65584196
   0.99692766  0.67061464  0.65583456
   0.33077588  0.67048493  0.65584563
   0.66396198  0.66983993  0.65594963
   0.33009546  0.33804416  0.76084461
   0.18706160  0.41492418  0.77628546
   0.39631787  0.19531640  0.77663768
   0.40664852  0.40465297  0.77617188
