  40  40   0   0
  0.3359208E+02  0.8421642E-09  0.8421642E-09  0.2187624E-08  0.5000000E-15
  1.000000000000000E-004
  CAR 
 unknown system                          
      8.23247387    -14.72146452  301      1.43165522      1.00000000
    -14.721  0.0000E+00  0.0000E+00
    -14.645  0.0000E+00  0.0000E+00
    -14.568  0.0000E+00  0.0000E+00
    -14.492  0.7521E-02  0.5755E-03
    -14.415  0.8639E-02  0.1236E-02
    -14.339  0.1855E-01  0.2656E-02
    -14.262  0.3977E-01  0.5699E-02
    -14.186  0.8508E-01  0.1221E-01
    -14.109  0.1810E+00  0.2606E-01
    -14.033  0.3806E+00  0.5518E-01
    -13.956  0.7811E+00  0.1149E+00
    -13.880  0.1526E+01  0.2317E+00
    -13.803  0.2716E+01  0.4395E+00
    -13.727  0.4112E+01  0.7542E+00
    -13.650  0.4923E+01  0.1131E+01
    -13.574  0.4474E+01  0.1473E+01
    -13.497  0.3157E+01  0.1715E+01
    -13.421  0.1851E+01  0.1856E+01
    -13.344  0.9694E+00  0.1930E+01
    -13.268  0.4779E+00  0.1967E+01
    -13.191  0.2286E+00  0.1985E+01
    -13.115  0.1078E+00  0.1993E+01
    -13.038  0.5044E-01  0.1997E+01
    -12.962  0.2353E-01  0.1998E+01
    -12.885  0.1096E-01  0.1999E+01
    -12.809  0.0000E+00  0.2000E+01
    -12.732  0.0000E+00  0.2000E+01
    -12.656  0.0000E+00  0.2000E+01
    -12.579  0.0000E+00  0.2000E+01
    -12.503  0.0000E+00  0.2000E+01
    -12.426  0.0000E+00  0.2000E+01
    -12.350  0.0000E+00  0.2000E+01
    -12.273  0.0000E+00  0.2000E+01
    -12.197  0.0000E+00  0.2000E+01
    -12.120  0.0000E+00  0.2000E+01
    -12.044  0.0000E+00  0.2000E+01
    -11.967  0.0000E+00  0.2000E+01
    -11.890  0.0000E+00  0.2000E+01
    -11.814  0.0000E+00  0.2000E+01
    -11.737  0.0000E+00  0.2000E+01
    -11.661  0.0000E+00  0.2000E+01
    -11.584  0.0000E+00  0.2000E+01
    -11.508  0.0000E+00  0.2000E+01
    -11.431  0.0000E+00  0.2000E+01
    -11.355  0.0000E+00  0.2000E+01
    -11.278  0.0000E+00  0.2000E+01
    -11.202  0.0000E+00  0.2000E+01
    -11.125  0.0000E+00  0.2000E+01
    -11.049  0.0000E+00  0.2000E+01
    -10.972  0.0000E+00  0.2000E+01
    -10.896  0.0000E+00  0.2000E+01
    -10.819  0.0000E+00  0.2000E+01
    -10.743  0.0000E+00  0.2000E+01
    -10.666  0.0000E+00  0.2000E+01
    -10.590  0.0000E+00  0.2000E+01
    -10.513  0.0000E+00  0.2000E+01
    -10.437  0.0000E+00  0.2000E+01
    -10.360  0.0000E+00  0.2000E+01
    -10.284  0.0000E+00  0.2000E+01
    -10.207  0.0000E+00  0.2000E+01
    -10.131  0.0000E+00  0.2000E+01
    -10.054  0.0000E+00  0.2000E+01
     -9.978  0.0000E+00  0.2000E+01
     -9.901  0.0000E+00  0.2000E+01
     -9.825  0.0000E+00  0.2000E+01
     -9.748  0.3722E-02  0.2000E+01
     -9.672  0.6018E-02  0.2001E+01
     -9.595  0.1118E-01  0.2002E+01
     -9.519  0.2400E-01  0.2003E+01
     -9.442  0.5144E-01  0.2007E+01
     -9.366  0.1099E+00  0.2016E+01
     -9.289  0.2330E+00  0.2034E+01
     -9.213  0.4867E+00  0.2071E+01
     -9.136  0.9854E+00  0.2146E+01
     -9.059  0.1875E+01  0.2290E+01
     -8.983  0.3182E+01  0.2533E+01
     -8.906  0.4482E+01  0.2876E+01
     -8.830  0.4905E+01  0.3251E+01
     -8.753  0.4084E+01  0.3564E+01
     -8.677  0.2694E+01  0.3770E+01
     -8.600  0.1515E+01  0.3886E+01
     -8.524  0.7759E+00  0.3945E+01
     -8.447  0.3797E+00  0.3974E+01
     -8.371  0.1838E+00  0.3988E+01
     -8.294  0.9374E-01  0.3996E+01
     -8.218  0.5861E-01  0.4000E+01
     -8.141  0.6042E-01  0.4005E+01
     -8.065  0.8683E-01  0.4013E+01
     -7.988  0.1783E+00  0.4026E+01
     -7.912  0.3469E+00  0.4053E+01
     -7.835  0.6206E+00  0.4100E+01
     -7.759  0.9856E+00  0.4176E+01
     -7.682  0.1365E+01  0.4280E+01
     -7.606  0.1671E+01  0.4408E+01
     -7.529  0.1862E+01  0.4550E+01
     -7.453  0.1966E+01  0.4701E+01
     -7.376  0.2053E+01  0.4858E+01
     -7.300  0.2143E+01  0.5022E+01
     -7.223  0.2183E+01  0.5189E+01
     -7.147  0.2161E+01  0.5354E+01
     -7.070  0.2145E+01  0.5518E+01
     -6.994  0.2192E+01  0.5686E+01
     -6.917  0.2301E+01  0.5862E+01
     -6.841  0.2421E+01  0.6048E+01
     -6.764  0.2499E+01  0.6239E+01
     -6.688  0.2585E+01  0.6437E+01
     -6.611  0.2770E+01  0.6649E+01
     -6.535  0.3157E+01  0.6890E+01
     -6.458  0.3771E+01  0.7179E+01
     -6.382  0.4468E+01  0.7521E+01
     -6.305  0.5013E+01  0.7905E+01
     -6.229  0.5380E+01  0.8316E+01
     -6.152  0.5821E+01  0.8762E+01
     -6.075  0.6578E+01  0.9265E+01
     -5.999  0.7705E+01  0.9855E+01
     -5.922  0.9144E+01  0.1055E+02
     -5.846  0.1066E+02  0.1137E+02
     -5.769  0.1181E+02  0.1227E+02
     -5.693  0.1226E+02  0.1321E+02
     -5.616  0.1203E+02  0.1413E+02
     -5.540  0.1145E+02  0.1501E+02
     -5.463  0.1105E+02  0.1585E+02
     -5.387  0.1133E+02  0.1672E+02
     -5.310  0.1262E+02  0.1769E+02
     -5.234  0.1489E+02  0.1883E+02
     -5.157  0.1767E+02  0.2018E+02
     -5.081  0.2039E+02  0.2174E+02
     -5.004  0.2283E+02  0.2349E+02
     -4.928  0.2522E+02  0.2542E+02
     -4.851  0.2773E+02  0.2754E+02
     -4.775  0.3007E+02  0.2984E+02
     -4.698  0.3177E+02  0.3227E+02
     -4.622  0.3289E+02  0.3479E+02
     -4.545  0.3421E+02  0.3741E+02
     -4.469  0.3651E+02  0.4020E+02
     -4.392  0.3971E+02  0.4324E+02
     -4.316  0.4324E+02  0.4655E+02
     -4.239  0.4648E+02  0.5011E+02
     -4.163  0.4891E+02  0.5385E+02
     -4.086  0.5020E+02  0.5769E+02
     -4.010  0.5038E+02  0.6155E+02
     -3.933  0.4974E+02  0.6536E+02
     -3.857  0.4842E+02  0.6906E+02
     -3.780  0.4634E+02  0.7261E+02
     -3.704  0.4355E+02  0.7594E+02
     -3.627  0.4059E+02  0.7905E+02
     -3.551  0.3822E+02  0.8198E+02
     -3.474  0.3724E+02  0.8483E+02
     -3.398  0.3829E+02  0.8776E+02
     -3.321  0.4121E+02  0.9091E+02
     -3.244  0.4463E+02  0.9433E+02
     -3.168  0.4699E+02  0.9793E+02
     -3.091  0.4792E+02  0.1016E+03
     -3.015  0.4812E+02  0.1053E+03
     -2.938  0.4835E+02  0.1090E+03
     -2.862  0.4873E+02  0.1127E+03
     -2.785  0.4894E+02  0.1165E+03
     -2.709  0.4886E+02  0.1202E+03
     -2.632  0.4882E+02  0.1239E+03
     -2.556  0.4916E+02  0.1277E+03
     -2.479  0.5018E+02  0.1315E+03
     -2.403  0.5196E+02  0.1355E+03
     -2.326  0.5438E+02  0.1397E+03
     -2.250  0.5731E+02  0.1441E+03
     -2.173  0.6052E+02  0.1487E+03
     -2.097  0.6337E+02  0.1535E+03
     -2.020  0.6547E+02  0.1586E+03
     -1.944  0.6735E+02  0.1637E+03
     -1.867  0.6987E+02  0.1691E+03
     -1.791  0.7287E+02  0.1746E+03
     -1.714  0.7548E+02  0.1804E+03
     -1.638  0.7728E+02  0.1863E+03
     -1.561  0.7835E+02  0.1923E+03
     -1.485  0.7852E+02  0.1983E+03
     -1.408  0.7723E+02  0.2042E+03
     -1.332  0.7396E+02  0.2099E+03
     -1.255  0.6885E+02  0.2152E+03
     -1.179  0.6294E+02  0.2200E+03
     -1.102  0.5742E+02  0.2244E+03
     -1.026  0.5295E+02  0.2284E+03
     -0.949  0.4984E+02  0.2323E+03
     -0.873  0.4867E+02  0.2360E+03
     -0.796  0.5002E+02  0.2398E+03
     -0.720  0.5350E+02  0.2439E+03
     -0.643  0.5727E+02  0.2483E+03
     -0.567  0.5908E+02  0.2528E+03
     -0.490  0.5817E+02  0.2573E+03
     -0.414  0.5580E+02  0.2616E+03
     -0.337  0.5364E+02  0.2657E+03
     -0.260  0.5239E+02  0.2697E+03
     -0.184  0.5202E+02  0.2737E+03
     -0.107  0.5241E+02  0.2777E+03
     -0.031  0.5371E+02  0.2818E+03
      0.046  0.5596E+02  0.2861E+03
      0.122  0.5862E+02  0.2905E+03
      0.199  0.6088E+02  0.2952E+03
      0.275  0.6218E+02  0.3000E+03
      0.352  0.6207E+02  0.3047E+03
      0.428  0.6036E+02  0.3093E+03
      0.505  0.5756E+02  0.3137E+03
      0.581  0.5487E+02  0.3179E+03
      0.658  0.5328E+02  0.3220E+03
      0.734  0.5289E+02  0.3261E+03
      0.811  0.5332E+02  0.3302E+03
      0.887  0.5448E+02  0.3343E+03
      0.964  0.5673E+02  0.3387E+03
      1.040  0.6031E+02  0.3433E+03
      1.117  0.6457E+02  0.3482E+03
      1.193  0.6834E+02  0.3535E+03
      1.270  0.7055E+02  0.3589E+03
      1.346  0.7042E+02  0.3643E+03
      1.423  0.6762E+02  0.3694E+03
      1.499  0.6241E+02  0.3742E+03
      1.576  0.5573E+02  0.3785E+03
      1.652  0.4841E+02  0.3822E+03
      1.729  0.4081E+02  0.3853E+03
      1.805  0.3341E+02  0.3879E+03
      1.882  0.2709E+02  0.3899E+03
      1.958  0.2235E+02  0.3916E+03
      2.035  0.1903E+02  0.3931E+03
      2.111  0.1668E+02  0.3944E+03
      2.188  0.1488E+02  0.3955E+03
      2.264  0.1343E+02  0.3966E+03
      2.341  0.1246E+02  0.3975E+03
      2.417  0.1205E+02  0.3984E+03
      2.494  0.1195E+02  0.3994E+03
      2.571  0.1186E+02  0.4003E+03
      2.647  0.1168E+02  0.4012E+03
      2.724  0.1155E+02  0.4020E+03
      2.800  0.1171E+02  0.4029E+03
      2.877  0.1222E+02  0.4039E+03
      2.953  0.1277E+02  0.4048E+03
      3.030  0.1301E+02  0.4058E+03
      3.106  0.1302E+02  0.4068E+03
      3.183  0.1303E+02  0.4078E+03
      3.259  0.1308E+02  0.4088E+03
      3.336  0.1288E+02  0.4098E+03
      3.412  0.1222E+02  0.4108E+03
      3.489  0.1133E+02  0.4116E+03
      3.565  0.1067E+02  0.4124E+03
      3.642  0.1061E+02  0.4133E+03
      3.718  0.1114E+02  0.4141E+03
      3.795  0.1191E+02  0.4150E+03
      3.871  0.1232E+02  0.4160E+03
      3.948  0.1212E+02  0.4169E+03
      4.024  0.1161E+02  0.4178E+03
      4.101  0.1130E+02  0.4186E+03
      4.177  0.1133E+02  0.4195E+03
      4.254  0.1140E+02  0.4204E+03
      4.330  0.1123E+02  0.4212E+03
      4.407  0.1089E+02  0.4221E+03
      4.483  0.1074E+02  0.4229E+03
      4.560  0.1103E+02  0.4237E+03
      4.636  0.1158E+02  0.4246E+03
      4.713  0.1202E+02  0.4256E+03
      4.789  0.1218E+02  0.4265E+03
      4.866  0.1204E+02  0.4274E+03
      4.942  0.1169E+02  0.4283E+03
      5.019  0.1132E+02  0.4292E+03
      5.095  0.1105E+02  0.4300E+03
      5.172  0.1085E+02  0.4308E+03
      5.248  0.1081E+02  0.4317E+03
      5.325  0.1103E+02  0.4325E+03
      5.401  0.1142E+02  0.4334E+03
      5.478  0.1169E+02  0.4343E+03
      5.555  0.1175E+02  0.4352E+03
      5.631  0.1167E+02  0.4361E+03
      5.708  0.1147E+02  0.4370E+03
      5.784  0.1115E+02  0.4378E+03
      5.861  0.1069E+02  0.4386E+03
      5.937  0.1009E+02  0.4394E+03
      6.014  0.9494E+01  0.4401E+03
      6.090  0.9061E+01  0.4408E+03
      6.167  0.8919E+01  0.4415E+03
      6.243  0.9112E+01  0.4422E+03
      6.320  0.9508E+01  0.4429E+03
      6.396  0.9849E+01  0.4437E+03
      6.473  0.1002E+02  0.4445E+03
      6.549  0.1005E+02  0.4452E+03
      6.626  0.9974E+01  0.4460E+03
      6.702  0.9812E+01  0.4467E+03
      6.779  0.9471E+01  0.4475E+03
      6.855  0.8788E+01  0.4481E+03
      6.932  0.7619E+01  0.4487E+03
      7.008  0.6039E+01  0.4492E+03
      7.085  0.4334E+01  0.4495E+03
      7.161  0.2825E+01  0.4497E+03
      7.238  0.1691E+01  0.4499E+03
      7.314  0.9350E+00  0.4499E+03
      7.391  0.4829E+00  0.4500E+03
      7.467  0.2364E+00  0.4500E+03
      7.544  0.1103E+00  0.4500E+03
      7.620  0.4965E-01  0.4500E+03
      7.697  0.2013E-01  0.4500E+03
      7.773  0.7382E-02  0.4500E+03
      7.850  0.2012E-02  0.4500E+03
      7.926  0.7959E-03  0.4500E+03
      8.003  0.0000E+00  0.4500E+03
      8.079  0.0000E+00  0.4500E+03
      8.156  0.0000E+00  0.4500E+03
      8.232  0.0000E+00  0.4500E+03
