<?xml version="1.0" encoding="ISO-8859-1"?>
<modeling>
 <generator>
  <i name="program" type="string">vasp </i>
  <i name="version" type="string">5.4.1  </i>
  <i name="subversion" type="string">24Jun15 (build Oct 10 2016 12:42:00) complex                          parallel </i>
  <i name="platform" type="string">IFC91_ompi </i>
  <i name="date" type="string">2018 06 13 </i>
  <i name="time" type="string">11:13:43 </i>
 </generator>
 <incar>
  <i type="string" name="PREC">normal</i>
  <i type="string" name="ALGO"> fast</i>
  <i type="int" name="ISPIN">     1</i>
  <i type="int" name="NELMDL">    -4</i>
  <i type="int" name="NELMIN">     4</i>
  <i name="EDIFF">      0.00000100</i>
  <i name="ENCUT">    400.00000000</i>
  <i type="string" name="LREAL"> auto</i>
  <i type="int" name="ISMEAR">    -1</i>
  <i name="SIGMA">      0.10000000</i>
  <i type="logical" name="LWAVE"> F  </i>
  <i type="logical" name="LCHARG"> F  </i>
  <v type="int" name="KPOINT_BSE">    -1     0     0     0</v>
  <i type="string" name="GGA"> PE</i>
 </incar>
 <kpoints>
  <generation param="Monkhorst-Pack">
   <v type="int" name="divisions">       6        6        1 </v>
   <v name="usershift">      0.00000000       0.00000000       0.00000000 </v>
   <v name="genvec1">      0.16666667      -0.00000000       0.00000000 </v>
   <v name="genvec2">      0.00000000       0.16666667       0.00000000 </v>
   <v name="genvec3">      0.00000000       0.00000000       1.00000000 </v>
   <v name="shift">      0.50000000       0.50000000       0.00000000 </v>
  </generation>
  <varray name="kpointlist" >
   <v>       0.08333333       0.08333333       0.00000000 </v>
   <v>       0.00000000       0.08333333       0.00000000 </v>
   <v>      -0.08333333       0.00000000       0.00000000 </v>
   <v>       0.25000000       0.08333333       0.00000000 </v>
   <v>       0.16666667       0.25000000       0.00000000 </v>
   <v>      -0.08333333       0.16666667       0.00000000 </v>
   <v>       0.16666667      -0.08333333       0.00000000 </v>
   <v>      -0.08333333      -0.25000000       0.00000000 </v>
   <v>      -0.25000000      -0.16666667       0.00000000 </v>
   <v>       0.41666667       0.08333333       0.00000000 </v>
   <v>       0.33333333       0.41666667       0.00000000 </v>
   <v>      -0.08333333       0.33333333       0.00000000 </v>
   <v>       0.33333333      -0.08333333       0.00000000 </v>
   <v>      -0.08333333      -0.41666667       0.00000000 </v>
   <v>      -0.41666667      -0.33333333       0.00000000 </v>
   <v>      -0.41666667       0.08333333       0.00000000 </v>
   <v>       0.50000000      -0.41666667       0.00000000 </v>
   <v>      -0.08333333       0.50000000       0.00000000 </v>
   <v>       0.50000000      -0.08333333       0.00000000 </v>
   <v>      -0.08333333       0.41666667       0.00000000 </v>
   <v>       0.41666667       0.50000000       0.00000000 </v>
   <v>      -0.25000000       0.08333333       0.00000000 </v>
   <v>      -0.33333333      -0.25000000       0.00000000 </v>
   <v>      -0.08333333      -0.33333333       0.00000000 </v>
   <v>      -0.33333333      -0.08333333       0.00000000 </v>
   <v>      -0.08333333       0.25000000       0.00000000 </v>
   <v>       0.25000000       0.33333333       0.00000000 </v>
   <v>      -0.08333333       0.08333333       0.00000000 </v>
   <v>      -0.16666667      -0.08333333       0.00000000 </v>
   <v>      -0.08333333      -0.16666667       0.00000000 </v>
   <v>       0.25000000       0.25000000       0.00000000 </v>
   <v>       0.00000000       0.25000000       0.00000000 </v>
   <v>      -0.25000000       0.00000000       0.00000000 </v>
   <v>       0.41666667       0.25000000       0.00000000 </v>
   <v>       0.16666667       0.41666667       0.00000000 </v>
   <v>      -0.25000000       0.16666667       0.00000000 </v>
   <v>       0.16666667      -0.25000000       0.00000000 </v>
   <v>      -0.25000000      -0.41666667       0.00000000 </v>
   <v>      -0.41666667      -0.16666667       0.00000000 </v>
   <v>      -0.41666667       0.25000000       0.00000000 </v>
   <v>       0.33333333      -0.41666667       0.00000000 </v>
   <v>      -0.25000000       0.33333333       0.00000000 </v>
   <v>       0.33333333      -0.25000000       0.00000000 </v>
   <v>      -0.25000000       0.41666667       0.00000000 </v>
   <v>       0.41666667      -0.33333333       0.00000000 </v>
   <v>      -0.25000000       0.25000000       0.00000000 </v>
   <v>       0.50000000      -0.25000000       0.00000000 </v>
   <v>      -0.25000000       0.50000000       0.00000000 </v>
   <v>       0.41666667       0.41666667       0.00000000 </v>
   <v>       0.00000000       0.41666667       0.00000000 </v>
   <v>      -0.41666667      -0.00000000       0.00000000 </v>
   <v>      -0.41666667       0.41666667       0.00000000 </v>
   <v>       0.16666667      -0.41666667       0.00000000 </v>
   <v>      -0.41666667       0.16666667       0.00000000 </v>
  </varray>
  <varray name="weights" >
   <v>       0.01851852 </v>
   <v>       0.01851852 </v>
   <v>       0.01851852 </v>
   <v>       0.01851852 </v>
   <v>       0.01851852 </v>
   <v>       0.01851852 </v>
   <v>       0.01851852 </v>
   <v>       0.01851852 </v>
   <v>       0.01851852 </v>
   <v>       0.01851852 </v>
   <v>       0.01851852 </v>
   <v>       0.01851852 </v>
   <v>       0.01851852 </v>
   <v>       0.01851852 </v>
   <v>       0.01851852 </v>
   <v>       0.01851852 </v>
   <v>       0.01851852 </v>
   <v>       0.01851852 </v>
   <v>       0.01851852 </v>
   <v>       0.01851852 </v>
   <v>       0.01851852 </v>
   <v>       0.01851852 </v>
   <v>       0.01851852 </v>
   <v>       0.01851852 </v>
   <v>       0.01851852 </v>
   <v>       0.01851852 </v>
   <v>       0.01851852 </v>
   <v>       0.01851852 </v>
   <v>       0.01851852 </v>
   <v>       0.01851852 </v>
   <v>       0.01851852 </v>
   <v>       0.01851852 </v>
   <v>       0.01851852 </v>
   <v>       0.01851852 </v>
   <v>       0.01851852 </v>
   <v>       0.01851852 </v>
   <v>       0.01851852 </v>
   <v>       0.01851852 </v>
   <v>       0.01851852 </v>
   <v>       0.01851852 </v>
   <v>       0.01851852 </v>
   <v>       0.01851852 </v>
   <v>       0.01851852 </v>
   <v>       0.01851852 </v>
   <v>       0.01851852 </v>
   <v>       0.01851852 </v>
   <v>       0.01851852 </v>
   <v>       0.01851852 </v>
   <v>       0.01851852 </v>
   <v>       0.01851852 </v>
   <v>       0.01851852 </v>
   <v>       0.01851852 </v>
   <v>       0.01851852 </v>
   <v>       0.01851852 </v>
  </varray>
 </kpoints>
 <parameters>
  <separator name="general" >
   <i type="string" name="SYSTEM">unknown system</i>
   <i type="logical" name="LCOMPAT"> F  </i>
  </separator>
  <separator name="electronic" >
   <i type="string" name="PREC">normal</i>
   <i name="ENMAX">    400.00000000</i>
   <i name="ENAUG">    644.87300000</i>
   <i name="EDIFF">      0.00000100</i>
   <i type="int" name="IALGO">    68</i>
   <i type="int" name="IWAVPR">    10</i>
   <i type="int" name="NBANDS">   225</i>
   <i name="NELECT">    370.00000000</i>
   <i type="int" name="TURBO">     0</i>
   <i type="int" name="IRESTART">     0</i>
   <i type="int" name="NREBOOT">     0</i>
   <i type="int" name="NMIN">     0</i>
   <i name="EREF">      0.00000000</i>
   <separator name="electronic smearing" >
    <i type="int" name="ISMEAR">    -1</i>
    <i name="SIGMA">      0.10000000</i>
    <i name="KSPACING">      0.50000000</i>
    <i type="logical" name="KGAMMA"> T  </i>
   </separator>
   <separator name="electronic projectors" >
    <i type="logical" name="LREAL"> T  </i>
    <v name="ROPT">     -0.00050000     -0.00050000     -0.00050000</v>
    <i type="int" name="LMAXPAW">  -100</i>
    <i type="int" name="LMAXMIX">     2</i>
    <i type="logical" name="NLSPLINE"> F  </i>
   </separator>
   <separator name="electronic startup" >
    <i type="int" name="ISTART">     0</i>
    <i type="int" name="ICHARG">     2</i>
    <i type="int" name="INIWAV">     1</i>
   </separator>
   <separator name="electronic spin" >
    <i type="int" name="ISPIN">     1</i>
    <i type="logical" name="LNONCOLLINEAR"> F  </i>
    <v name="MAGMOM">      1.00000000      1.00000000      1.00000000      1.00000000      1.00000000      1.00000000      1.00000000      1.00000000      1.00000000      1.00000000      1.00000000      1.00000000      1.00000000      1.00000000      1.00000000      1.00000000      1.00000000      1.00000000      1.00000000      1.00000000
      1.00000000      1.00000000      1.00000000      1.00000000      1.00000000      1.00000000      1.00000000      1.00000000      1.00000000      1.00000000      1.00000000      1.00000000      1.00000000      1.00000000      1.00000000      1.00000000      1.00000000      1.00000000      1.00000000      1.00000000
</v>
    <i name="NUPDOWN">     -1.00000000</i>
    <i type="logical" name="LSORBIT"> F  </i>
    <v name="SAXIS">      0.00000000      0.00000000      1.00000000</v>
    <i type="logical" name="LSPIRAL"> F  </i>
    <v name="QSPIRAL">      0.00000000      0.00000000      0.00000000</v>
    <i type="logical" name="LZEROZ"> F  </i>
   </separator>
   <separator name="electronic exchange-correlation" >
    <i type="logical" name="LASPH"> F  </i>
    <i type="logical" name="LMETAGGA"> F  </i>
   </separator>
   <separator name="electronic convergence" >
    <i type="int" name="NELM">    60</i>
    <i type="int" name="NELMDL">    -4</i>
    <i type="int" name="NELMIN">     4</i>
    <i name="ENINI">    400.00000000</i>
    <separator name="electronic convergence detail" >
     <i type="logical" name="LDIAG"> T  </i>
     <i type="logical" name="LSUBROT"> F  </i>
     <i name="WEIMIN">      0.00000000</i>
     <i name="EBREAK">      0.00000000</i>
     <i name="DEPER">      0.30000000</i>
     <i type="int" name="NRMM">     4</i>
     <i name="TIME">      0.40000000</i>
    </separator>
   </separator>
   <separator name="electronic mixer" >
    <i name="AMIX">      0.40000000</i>
    <i name="BMIX">      1.00000000</i>
    <i name="AMIN">      0.10000000</i>
    <i name="AMIX_MAG">      1.60000000</i>
    <i name="BMIX_MAG">      1.00000000</i>
    <separator name="electronic mixer details" >
     <i type="int" name="IMIX">     4</i>
     <i type="logical" name="MIXFIRST"> F  </i>
     <i type="int" name="MAXMIX">   -45</i>
     <i name="WC">    100.00000000</i>
     <i type="int" name="INIMIX">     1</i>
     <i type="int" name="MIXPRE">     1</i>
     <i type="int" name="MREMOVE">     5</i>
    </separator>
   </separator>
   <separator name="electronic dipolcorrection" >
    <i type="logical" name="LDIPOL"> F  </i>
    <i type="logical" name="LMONO"> F  </i>
    <i type="int" name="IDIPOL">     0</i>
    <i name="EPSILON">      1.00000000</i>
    <v name="DIPOL">   -100.00000000   -100.00000000   -100.00000000</v>
    <i name="EFIELD">      0.00000000</i>
   </separator>
  </separator>
  <separator name="grids" >
   <i type="int" name="NGX">    42</i>
   <i type="int" name="NGY">    42</i>
   <i type="int" name="NGZ">   108</i>
   <i type="int" name="NGXF">    84</i>
   <i type="int" name="NGYF">    84</i>
   <i type="int" name="NGZF">   216</i>
   <i type="logical" name="ADDGRID"> F  </i>
  </separator>
  <separator name="ionic" >
   <i type="int" name="NSW">     0</i>
   <i type="int" name="IBRION">    -1</i>
   <i type="int" name="ISIF">     2</i>
   <i name="PSTRESS">      0.00000000</i>
   <i name="EDIFFG">      0.00001000</i>
   <i type="int" name="NFREE">     0</i>
   <i name="POTIM">      0.50000000</i>
   <i name="SMASS">     -3.00000000</i>
   <i name="SCALEE">      1.00000000</i>
  </separator>
  <separator name="ionic md" >
   <i name="TEBEG">      0.00010000</i>
   <i name="TEEND">      0.00010000</i>
   <i type="int" name="NBLOCK">     1</i>
   <i type="int" name="KBLOCK">     1</i>
   <i type="int" name="NPACO">   256</i>
   <i name="APACO">     16.00000000</i>
  </separator>
  <separator name="symmetry" >
   <i type="int" name="ISYM">     2</i>
   <i name="SYMPREC">      0.00001000</i>
  </separator>
  <separator name="dos" >
   <i type="logical" name="LORBIT"> F  </i>
   <v name="RWIGS">     -1.00000000     -1.00000000     -1.00000000</v>
   <i type="int" name="NEDOS">   301</i>
   <i name="EMIN">     10.00000000</i>
   <i name="EMAX">    -10.00000000</i>
   <i name="EFERMI">      0.00000000</i>
  </separator>
  <separator name="writing" >
   <i type="int" name="NWRITE">     2</i>
   <i type="logical" name="LWAVE"> F  </i>
   <i type="logical" name="LCHARG"> F  </i>
   <i type="logical" name="LPARD"> F  </i>
   <i type="logical" name="LVTOT"> F  </i>
   <i type="logical" name="LVHAR"> F  </i>
   <i type="logical" name="LELF"> F  </i>
   <i type="logical" name="LOPTICS"> F  </i>
   <v name="STM">      0.00000000      0.00000000      0.00000000      0.00000000      0.00000000      0.00000000      0.00000000</v>
  </separator>
  <separator name="performance" >
   <i type="int" name="NPAR">     5</i>
   <i type="int" name="NSIM">     4</i>
   <i type="int" name="NBLK">    -1</i>
   <i type="logical" name="LPLANE"> T  </i>
   <i type="logical" name="LSCALAPACK"> T  </i>
   <i type="logical" name="LSCAAWARE"> F  </i>
   <i type="logical" name="LSCALU"> F  </i>
   <i type="logical" name="LASYNC"> F  </i>
   <i type="logical" name="LORBITALREAL"> F  </i>
  </separator>
  <separator name="miscellaneous" >
   <i type="int" name="IDIOT">     3</i>
   <i type="logical" name="LMUSIC"> F  </i>
   <v name="POMASS">    195.08000000     12.01100000      1.00000000</v>
   <v name="DARWINR">      0.00000000      0.00000000      0.00000000</v>
   <v name="DARWINV">      1.00000000      1.00000000      1.00000000</v>
   <i type="logical" name="LCORR"> T  </i>
  </separator>
  <i type="logical" name="GGA_COMPAT"> T  </i>
  <i type="logical" name="LBERRY"> F  </i>
  <i type="int" name="ICORELEVEL">     0</i>
  <i type="logical" name="LDAU"> F  </i>
  <i type="int" name="I_CONSTRAINED_M">     0</i>
  <separator name="electronic exchange-correlation" >
   <i type="string" name="GGA">PE</i>
   <i type="int" name="VOSKOWN">     0</i>
   <i type="logical" name="LHFCALC"> F  </i>
   <i type="string" name="PRECFOCK"></i>
   <i type="logical" name="LSYMGRAD"> F  </i>
   <i type="logical" name="LHFONE"> F  </i>
   <i type="logical" name="LRHFCALC"> F  </i>
   <i type="logical" name="LTHOMAS"> F  </i>
   <i type="logical" name="LMODELHF"> F  </i>
   <i name="ENCUT4O">     -1.00000000</i>
   <i type="int" name="EXXOEP">     0</i>
   <i type="int" name="FOURORBIT">     0</i>
   <i name="AEXX">      0.00000000</i>
   <i name="HFALPHA">      0.00000000</i>
   <i name="MCALPHA">      0.00000000</i>
   <i name="ALDAX">      1.00000000</i>
   <i name="AGGAX">      1.00000000</i>
   <i name="ALDAC">      1.00000000</i>
   <i name="AGGAC">      1.00000000</i>
   <i type="int" name="NKREDX">     1</i>
   <i type="int" name="NKREDY">     1</i>
   <i type="int" name="NKREDZ">     1</i>
   <i type="logical" name="SHIFTRED"> F  </i>
   <i type="logical" name="ODDONLY"> F  </i>
   <i type="logical" name="EVENONLY"> F  </i>
   <i type="int" name="LMAXFOCK">     0</i>
   <i type="int" name="NMAXFOCKAE">     0</i>
   <i type="logical" name="LFOCKAEDFT"> F  </i>
   <i name="HFSCREEN">      0.00000000</i>
   <i name="HFSCREENC">      0.00000000</i>
   <i type="int" name="NBANDSGWLOW">     0</i>
  </separator>
  <separator name="vdW DFT" >
   <i type="logical" name="LUSE_VDW"> F  </i>
   <i name="Zab_VDW">     -0.84910000</i>
   <i name="PARAM1">      0.12340000</i>
   <i name="PARAM2">      1.00000000</i>
   <i name="PARAM3">      0.00000000</i>
  </separator>
  <separator name="model GW" >
   <i type="int" name="MODEL_GW">     0</i>
   <i name="MODEL_EPS0">     20.15524730</i>
   <i name="MODEL_ALPHA">      1.00000000</i>
  </separator>
  <separator name="linear response parameters" >
   <i type="logical" name="LEPSILON"> F  </i>
   <i type="logical" name="LRPA"> F  </i>
   <i type="logical" name="LNABLA"> F  </i>
   <i type="logical" name="LVEL"> F  </i>
   <i type="int" name="KINTER">     0</i>
   <i name="CSHIFT">      0.10000000</i>
   <i name="OMEGAMAX">     -1.00000000</i>
   <i name="DEG_THRESHOLD">      0.00200000</i>
  </separator>
  <separator name="orbital magnetization" >
   <i type="logical" name="NUCIND"> F  </i>
   <v name="MAGPOS">      0.00000000      0.00000000      0.00000000</v>
   <i type="logical" name="LNICSALL"> T  </i>
   <i type="logical" name="ORBITALMAG"> F  </i>
   <i type="logical" name="LMAGBLOCH"> F  </i>
   <i type="logical" name="LCHIMAG"> F  </i>
   <i type="logical" name="LGAUGE"> T  </i>
   <i type="int" name="MAGATOM">     0</i>
   <v name="MAGDIPOL">      0.00000000      0.00000000      0.00000000</v>
   <v name="AVECCONST">      0.00000000      0.00000000      0.00000000</v>
  </separator>
  <separator name="response functions" >
   <i type="logical" name="LADDER"> F  </i>
   <i type="logical" name="LFXC"> F  </i>
   <i type="logical" name="LHARTREE"> T  </i>
   <i type="int" name="IBSE">     0</i>
   <v type="int" name="KPOINT">    -1     0     0     0</v>
   <i type="logical" name="LTCTE"> F  </i>
   <i type="logical" name="LTETE"> F  </i>
   <i type="logical" name="LTRIPLET"> F  </i>
   <i type="logical" name="LFXCEPS"> F  </i>
   <i type="logical" name="LFXHEG"> F  </i>
   <i type="int" name="NATURALO">     0</i>
   <i type="logical" name="L2ORDER"> F  </i>
   <i type="logical" name="LUSEW"> F  </i>
   <i name="ENCUTGW">     -2.00000000</i>
   <i name="ENCUTGWSOFT">     -2.00000000</i>
   <i name="ENCUTLF">     -1.00000000</i>
   <i type="int" name="LMAXMP2">    -1</i>
   <i name="SCISSOR">      0.00000000</i>
   <i type="int" name="NOMEGA">     0</i>
   <i type="int" name="NOMEGAR">     0</i>
   <i type="int" name="NBANDSGW">    -1</i>
   <i type="int" name="NBANDSO">    -1</i>
   <i type="int" name="NBANDSV">    -1</i>
   <i type="int" name="NELM">     1</i>
   <i type="int" name="NELMHF">     1</i>
   <i type="int" name="DIM">     3</i>
   <i type="int" name="ANTIRES">     0</i>
   <i name="OMEGAMAX">    -30.00000000</i>
   <i name="OMEGAMIN">    -30.00000000</i>
   <i name="OMEGATL">   -200.00000000</i>
   <i type="int" name="OMEGAGRID">     0</i>
   <i name="CSHIFT">     -0.10000000</i>
   <i type="logical" name="SELFENERGY"> F  </i>
   <i type="logical" name="LSPECTRAL"> F  </i>
   <i type="logical" name="LSPECTRALGW"> F  </i>
   <i type="logical" name="LSINGLES"> F  </i>
   <i type="logical" name="LFERMIGW"> F  </i>
   <i type="logical" name="ODDONLYGW"> F  </i>
   <i type="logical" name="EVENONLYGW"> F  </i>
   <i type="int" name="NKREDLFX">     1</i>
   <i type="int" name="NKREDLFY">     1</i>
   <i type="int" name="NKREDLFZ">     1</i>
   <i type="int" name="MAXMEM">  1800</i>
   <i type="int" name="TELESCOPE">     0</i>
   <i type="int" name="TAUPAR">     1</i>
   <i type="int" name="OMEGAPAR">    -1</i>
   <i name="LAMBDA">      1.00000000</i>
  </separator>
  <separator name="External order field" >
   <i name="OFIELD_KAPPA">      0.00000000</i>
   <v name="OFIELD_K">      0.00000000      0.00000000      0.00000000</v>
   <i name="OFIELD_Q6_NEAR">      0.00000000</i>
   <i name="OFIELD_Q6_FAR">      0.00000000</i>
   <i name="OFIELD_A">      0.00000000</i>
  </separator>
 </parameters>
 <atominfo>
  <atoms>      40 </atoms>
  <types>       3 </types>
  <array name="atoms" >
   <dimension dim="1">ion</dimension>
   <field type="string">element</field>
   <field type="int">atomtype</field>
   <set>
    <rc><c>Pt</c><c>   1</c></rc>
    <rc><c>Pt</c><c>   1</c></rc>
    <rc><c>Pt</c><c>   1</c></rc>
    <rc><c>Pt</c><c>   1</c></rc>
    <rc><c>Pt</c><c>   1</c></rc>
    <rc><c>Pt</c><c>   1</c></rc>
    <rc><c>Pt</c><c>   1</c></rc>
    <rc><c>Pt</c><c>   1</c></rc>
    <rc><c>Pt</c><c>   1</c></rc>
    <rc><c>Pt</c><c>   1</c></rc>
    <rc><c>Pt</c><c>   1</c></rc>
    <rc><c>Pt</c><c>   1</c></rc>
    <rc><c>Pt</c><c>   1</c></rc>
    <rc><c>Pt</c><c>   1</c></rc>
    <rc><c>Pt</c><c>   1</c></rc>
    <rc><c>Pt</c><c>   1</c></rc>
    <rc><c>Pt</c><c>   1</c></rc>
    <rc><c>Pt</c><c>   1</c></rc>
    <rc><c>Pt</c><c>   1</c></rc>
    <rc><c>Pt</c><c>   1</c></rc>
    <rc><c>Pt</c><c>   1</c></rc>
    <rc><c>Pt</c><c>   1</c></rc>
    <rc><c>Pt</c><c>   1</c></rc>
    <rc><c>Pt</c><c>   1</c></rc>
    <rc><c>Pt</c><c>   1</c></rc>
    <rc><c>Pt</c><c>   1</c></rc>
    <rc><c>Pt</c><c>   1</c></rc>
    <rc><c>Pt</c><c>   1</c></rc>
    <rc><c>Pt</c><c>   1</c></rc>
    <rc><c>Pt</c><c>   1</c></rc>
    <rc><c>Pt</c><c>   1</c></rc>
    <rc><c>Pt</c><c>   1</c></rc>
    <rc><c>Pt</c><c>   1</c></rc>
    <rc><c>Pt</c><c>   1</c></rc>
    <rc><c>Pt</c><c>   1</c></rc>
    <rc><c>Pt</c><c>   1</c></rc>
    <rc><c>C </c><c>   2</c></rc>
    <rc><c>C </c><c>   2</c></rc>
    <rc><c>H </c><c>   3</c></rc>
    <rc><c>H </c><c>   3</c></rc>
   </set>
  </array>
  <array name="atomtypes" >
   <dimension dim="1">type</dimension>
   <field type="int">atomspertype</field>
   <field type="string">element</field>
   <field>mass</field>
   <field>valence</field>
   <field type="string">pseudopotential</field>
   <set>
    <rc><c>  36</c><c>Pt</c><c>    195.08000000</c><c>     10.00000000</c><c>  PAW_PBE Pt 04Feb2005                  </c></rc>
    <rc><c>   2</c><c>C </c><c>     12.01100000</c><c>      4.00000000</c><c>  PAW_PBE C 08Apr2002                   </c></rc>
    <rc><c>   2</c><c>H </c><c>      1.00000000</c><c>      1.00000000</c><c>  PAW_PBE H 15Jun2001                   </c></rc>
   </set>
  </array>
 </atominfo>
 <structure name="initialpos" >
  <crystal>
   <varray name="basis" >
    <v>       8.42164176       0.00000000       0.00000000 </v>
    <v>       4.21082088       7.29335571       0.00000000 </v>
    <v>       0.00000000       0.00000000      21.87624171 </v>
   </varray>
   <i name="volume">   1343.68315334 </i>
   <varray name="rec_basis" >
    <v>       0.11874169      -0.06855555       0.00000000 </v>
    <v>       0.00000000       0.13711110       0.00000000 </v>
    <v>       0.00000000       0.00000000       0.04571169 </v>
   </varray>
  </crystal>
  <varray name="positions" >
   <v>       0.00000000       0.00000000       0.34283768 </v>
   <v>       0.33333333       0.00000000       0.34283768 </v>
   <v>       0.66666667       0.00000000       0.34283768 </v>
   <v>       0.00000000       0.33333333       0.34283768 </v>
   <v>       0.33333333       0.33333333       0.34283768 </v>
   <v>       0.66666667       0.33333333       0.34283768 </v>
   <v>       0.00000000       0.66666667       0.34283768 </v>
   <v>       0.33333333       0.66666667       0.34283768 </v>
   <v>       0.66666667       0.66666667       0.34283768 </v>
   <v>       0.11111111       0.11111111       0.44761256 </v>
   <v>       0.44444444       0.11111111       0.44761256 </v>
   <v>       0.77777778       0.11111111       0.44761256 </v>
   <v>       0.11111111       0.44444444       0.44761256 </v>
   <v>       0.44444444       0.44444444       0.44761256 </v>
   <v>       0.77777778       0.44444444       0.44761256 </v>
   <v>       0.11111111       0.77777778       0.44761256 </v>
   <v>       0.44444444       0.77777778       0.44761256 </v>
   <v>       0.77777778       0.77777778       0.44761256 </v>
   <v>       0.88820547       0.22445954       0.55069151 </v>
   <v>       0.22300058       0.22368898       0.55243660 </v>
   <v>       0.55413284       0.22351347       0.55246309 </v>
   <v>       0.88845494       0.55825915       0.55088862 </v>
   <v>       0.22322365       0.55443862       0.55361985 </v>
   <v>       0.55412996       0.55813005       0.55089261 </v>
   <v>       0.88602044       0.89277274       0.55179515 </v>
   <v>       0.22204129       0.89281562       0.55181993 </v>
   <v>       0.55448833       0.89190382       0.55192433 </v>
   <v>       0.99710327       0.00655955       0.65657390 </v>
   <v>       0.32708936       0.00099583       0.66136048 </v>
   <v>       0.67293263       0.00075883       0.66136971 </v>
   <v>       0.99439822       0.34044797       0.65546069 </v>
   <v>       0.31975499       0.36159996       0.66267053 </v>
   <v>       0.66619260       0.34065839       0.65539671 </v>
   <v>       0.99317481       0.67754274       0.65673724 </v>
   <v>       0.33056111       0.67760331       0.65672030 </v>
   <v>       0.66700731       0.66749242       0.65596318 </v>
   <v>       0.37651796       0.24841292       0.75608303 </v>
   <v>       0.44478329       0.11145449       0.71041659 </v>
   <v>       0.47088025       0.28042251       0.78019430 </v>
   <v>       0.25004709       0.28100466       0.78023262 </v>
  </varray>
  <varray name="selective"  type="logical" >
   <v type="logical" >  F  F  F </v>
   <v type="logical" >  F  F  F </v>
   <v type="logical" >  F  F  F </v>
   <v type="logical" >  F  F  F </v>
   <v type="logical" >  F  F  F </v>
   <v type="logical" >  F  F  F </v>
   <v type="logical" >  F  F  F </v>
   <v type="logical" >  F  F  F </v>
   <v type="logical" >  F  F  F </v>
   <v type="logical" >  F  F  F </v>
   <v type="logical" >  F  F  F </v>
   <v type="logical" >  F  F  F </v>
   <v type="logical" >  F  F  F </v>
   <v type="logical" >  F  F  F </v>
   <v type="logical" >  F  F  F </v>
   <v type="logical" >  F  F  F </v>
   <v type="logical" >  F  F  F </v>
   <v type="logical" >  F  F  F </v>
   <v type="logical" >  T  T  T </v>
   <v type="logical" >  T  T  T </v>
   <v type="logical" >  T  T  T </v>
   <v type="logical" >  T  T  T </v>
   <v type="logical" >  T  T  T </v>
   <v type="logical" >  T  T  T </v>
   <v type="logical" >  T  T  T </v>
   <v type="logical" >  T  T  T </v>
   <v type="logical" >  T  T  T </v>
   <v type="logical" >  T  T  T </v>
   <v type="logical" >  T  T  T </v>
   <v type="logical" >  T  T  T </v>
   <v type="logical" >  T  T  T </v>
   <v type="logical" >  T  T  T </v>
   <v type="logical" >  T  T  T </v>
   <v type="logical" >  T  T  T </v>
   <v type="logical" >  T  T  T </v>
   <v type="logical" >  T  T  T </v>
   <v type="logical" >  T  T  T </v>
   <v type="logical" >  T  T  T </v>
   <v type="logical" >  T  T  T </v>
   <v type="logical" >  T  T  T </v>
  </varray>
  <nose>
   <v>      -3.00000000       0.00000000       0.00010000       0.00010000 </v>
  </nose>
 </structure>
 <calculation>
  <scstep>
   <time name="dav">   74.18   74.84</time>
   <time name="total">   74.98   75.65</time>
   <energy>
    <i name="alphaZ">    954.96919766 </i>
    <i name="ewald">  92433.63302684 </i>
    <i name="hartreedc">-120850.75723951 </i>
    <i name="XCdc">    152.47187840 </i>
    <i name="pawpsdc">  25281.75942305 </i>
    <i name="pawaedc"> -24264.71933415 </i>
    <i name="eentropy">     -0.56937762 </i>
    <i name="bandstr">   1927.08788909 </i>
    <i name="atom">  26567.24197818 </i>
    <i name="e_fr_energy">   2201.11744193 </i>
    <i name="e_wo_entrp">   2201.68681955 </i>
    <i name="e_0_energy">   2201.40213074 </i>
   </energy>
  </scstep>
  <scstep>
   <time name="dav">  102.38  102.86</time>
   <time name="total">  102.38  102.96</time>
   <energy>
    <i name="e_fr_energy">    -87.87856524 </i>
    <i name="e_wo_entrp">    -86.77771796 </i>
    <i name="e_0_energy">    -87.32814160 </i>
   </energy>
  </scstep>
  <scstep>
   <time name="dav">   87.34   87.70</time>
   <time name="total">   87.34   87.79</time>
   <energy>
    <i name="e_fr_energy">   -245.98935728 </i>
    <i name="e_wo_entrp">   -244.12508157 </i>
    <i name="e_0_energy">   -245.05721943 </i>
   </energy>
  </scstep>
  <scstep>
   <time name="dav">   90.34   90.33</time>
   <time name="total">   92.79   92.80</time>
   <energy>
    <i name="e_fr_energy">   -252.79860796 </i>
    <i name="e_wo_entrp">   -250.88470886 </i>
    <i name="e_0_energy">   -251.84165841 </i>
   </energy>
  </scstep>
  <scstep>
   <time name="diag">   10.93   10.97</time>
   <time name="diis">   28.88   28.87</time>
   <time name="orth">    3.02    3.05</time>
   <time name="total">   46.11   46.36</time>
   <energy>
    <i name="e_fr_energy">   -240.92635091 </i>
    <i name="e_wo_entrp">   -238.93951745 </i>
    <i name="e_0_energy">   -239.93293418 </i>
   </energy>
  </scstep>
  <scstep>
   <time name="diag">   15.12   15.16</time>
   <time name="diis">   28.29   28.85</time>
   <time name="orth">    3.09    3.10</time>
   <time name="total">   49.07   49.71</time>
   <energy>
    <i name="e_fr_energy">   -283.03620877 </i>
    <i name="e_wo_entrp">   -281.87258909 </i>
    <i name="e_0_energy">   -282.45439893 </i>
   </energy>
  </scstep>
  <scstep>
   <time name="diag">   10.68   10.74</time>
   <time name="diis">   28.34   28.66</time>
   <time name="orth">    2.96    3.00</time>
   <time name="total">   44.53   45.07</time>
   <energy>
    <i name="e_fr_energy">   -242.09127556 </i>
    <i name="e_wo_entrp">   -240.42690522 </i>
    <i name="e_0_energy">   -241.25909039 </i>
   </energy>
  </scstep>
  <scstep>
   <time name="diag">   10.66   10.65</time>
   <time name="diis">   28.94   29.22</time>
   <time name="orth">    3.02    3.07</time>
   <time name="total">   45.07   45.41</time>
   <energy>
    <i name="e_fr_energy">   -250.69335748 </i>
    <i name="e_wo_entrp">   -249.40631808 </i>
    <i name="e_0_energy">   -250.04983778 </i>
   </energy>
  </scstep>
  <scstep>
   <time name="diag">   10.72   10.72</time>
   <time name="diis">   29.42   29.95</time>
   <time name="orth">    2.95    3.09</time>
   <time name="total">   46.23   47.14</time>
   <energy>
    <i name="e_fr_energy">   -243.78757517 </i>
    <i name="e_wo_entrp">   -241.94630841 </i>
    <i name="e_0_energy">   -242.86694179 </i>
   </energy>
  </scstep>
  <scstep>
   <time name="diag">   10.73   10.72</time>
   <time name="diis">   29.48   29.46</time>
   <time name="orth">    3.08    3.08</time>
   <time name="total">   45.71   45.70</time>
   <energy>
    <i name="e_fr_energy">   -235.84302297 </i>
    <i name="e_wo_entrp">   -233.86635198 </i>
    <i name="e_0_energy">   -234.85468747 </i>
   </energy>
  </scstep>
  <scstep>
   <time name="diag">   11.04   11.06</time>
   <time name="diis">   29.75   29.93</time>
   <time name="orth">    2.98    3.13</time>
   <time name="total">   47.25   47.88</time>
   <energy>
    <i name="e_fr_energy">   -235.25786200 </i>
    <i name="e_wo_entrp">   -233.19640297 </i>
    <i name="e_0_energy">   -234.22713248 </i>
   </energy>
  </scstep>
  <scstep>
   <time name="diag">   10.95   11.08</time>
   <time name="diis">   29.62   29.73</time>
   <time name="orth">    3.13    3.18</time>
   <time name="total">   46.10   46.41</time>
   <energy>
    <i name="e_fr_energy">   -234.99837348 </i>
    <i name="e_wo_entrp">   -232.92662134 </i>
    <i name="e_0_energy">   -233.96249741 </i>
   </energy>
  </scstep>
  <scstep>
   <time name="diag">   10.70   10.72</time>
   <time name="diis">   29.12   29.59</time>
   <time name="orth">    3.01    3.03</time>
   <time name="total">   46.08   46.65</time>
   <energy>
    <i name="e_fr_energy">   -234.89663767 </i>
    <i name="e_wo_entrp">   -232.83400522 </i>
    <i name="e_0_energy">   -233.86532144 </i>
   </energy>
  </scstep>
  <scstep>
   <time name="diag">   10.64   10.75</time>
   <time name="diis">   31.48   31.77</time>
   <time name="orth">    3.08    3.09</time>
   <time name="total">   47.61   48.06</time>
   <energy>
    <i name="e_fr_energy">   -234.88582989 </i>
    <i name="e_wo_entrp">   -232.83056303 </i>
    <i name="e_0_energy">   -233.85819646 </i>
   </energy>
  </scstep>
  <scstep>
   <time name="diag">   10.92   10.93</time>
   <time name="diis">   29.65   29.66</time>
   <time name="orth">    3.04    3.05</time>
   <time name="total">   46.01   46.05</time>
   <energy>
    <i name="e_fr_energy">   -234.86414309 </i>
    <i name="e_wo_entrp">   -232.79961437 </i>
    <i name="e_0_energy">   -233.83187873 </i>
   </energy>
  </scstep>
  <scstep>
   <time name="diag">   10.86   10.88</time>
   <time name="diis">   29.80   29.88</time>
   <time name="orth">    3.09    3.10</time>
   <time name="total">   46.24   46.35</time>
   <energy>
    <i name="e_fr_energy">   -234.85734335 </i>
    <i name="e_wo_entrp">   -232.78555563 </i>
    <i name="e_0_energy">   -233.82144949 </i>
   </energy>
  </scstep>
  <scstep>
   <time name="diag">   10.65   10.69</time>
   <time name="diis">   30.15   30.41</time>
   <time name="orth">    3.16    3.19</time>
   <time name="total">   46.98   47.35</time>
   <energy>
    <i name="e_fr_energy">   -234.85385807 </i>
    <i name="e_wo_entrp">   -232.78010652 </i>
    <i name="e_0_energy">   -233.81698230 </i>
   </energy>
  </scstep>
  <scstep>
   <time name="diag">   10.96   11.01</time>
   <time name="diis">   30.19   30.38</time>
   <time name="orth">    2.89    2.96</time>
   <time name="total">   46.48   46.79</time>
   <energy>
    <i name="e_fr_energy">   -234.85280473 </i>
    <i name="e_wo_entrp">   -232.78128836 </i>
    <i name="e_0_energy">   -233.81704655 </i>
   </energy>
  </scstep>
  <scstep>
   <time name="diag">   10.92   10.95</time>
   <time name="diis">   29.59   29.89</time>
   <time name="orth">    3.08    3.12</time>
   <time name="total">   46.12   46.63</time>
   <energy>
    <i name="e_fr_energy">   -234.85243037 </i>
    <i name="e_wo_entrp">   -232.78110791 </i>
    <i name="e_0_energy">   -233.81676914 </i>
   </energy>
  </scstep>
  <scstep>
   <time name="diag">   10.85   10.85</time>
   <time name="diis">   29.55   29.77</time>
   <time name="orth">    2.99    3.01</time>
   <time name="total">   45.80   46.04</time>
   <energy>
    <i name="e_fr_energy">   -234.85227182 </i>
    <i name="e_wo_entrp">   -232.78136320 </i>
    <i name="e_0_energy">   -233.81681751 </i>
   </energy>
  </scstep>
  <scstep>
   <time name="diag">   10.66   10.84</time>
   <time name="diis">   29.12   29.38</time>
   <time name="orth">    2.91    2.95</time>
   <time name="total">   45.18   45.83</time>
   <energy>
    <i name="e_fr_energy">   -234.85226265 </i>
    <i name="e_wo_entrp">   -232.78159245 </i>
    <i name="e_0_energy">   -233.81692755 </i>
   </energy>
  </scstep>
  <scstep>
   <time name="diag">   11.00   11.02</time>
   <time name="diis">   28.76   28.87</time>
   <time name="orth">    5.03    5.02</time>
   <time name="total">   47.16   47.40</time>
   <energy>
    <i name="e_fr_energy">   -234.85230003 </i>
    <i name="e_wo_entrp">   -232.78148134 </i>
    <i name="e_0_energy">   -233.81689069 </i>
   </energy>
  </scstep>
  <scstep>
   <time name="diag">   11.66   11.80</time>
   <time name="diis">   30.08   30.70</time>
   <time name="orth">    3.35    3.36</time>
   <time name="total">   49.15   50.01</time>
   <energy>
    <i name="e_fr_energy">   -234.85240167 </i>
    <i name="e_wo_entrp">   -232.78143017 </i>
    <i name="e_0_energy">   -233.81691592 </i>
   </energy>
  </scstep>
  <scstep>
   <time name="diag">   10.93   10.95</time>
   <time name="diis">   28.81   29.44</time>
   <time name="orth">    8.90    8.92</time>
   <time name="total">   54.03   55.99</time>
   <energy>
    <i name="e_fr_energy">   -234.85269398 </i>
    <i name="e_wo_entrp">   -232.78126336 </i>
    <i name="e_0_energy">   -233.81697867 </i>
   </energy>
  </scstep>
  <scstep>
   <time name="diag">   10.84   10.84</time>
   <time name="diis">   29.09   32.17</time>
   <time name="orth">    3.46    3.49</time>
   <time name="total">   46.53   49.66</time>
   <energy>
    <i name="e_fr_energy">   -234.85280463 </i>
    <i name="e_wo_entrp">   -232.78142852 </i>
    <i name="e_0_energy">   -233.81711658 </i>
   </energy>
  </scstep>
  <scstep>
   <time name="diag">   10.88   10.92</time>
   <time name="diis">   28.69   28.88</time>
   <time name="orth">    3.03    3.04</time>
   <time name="total">   45.04   45.30</time>
   <energy>
    <i name="e_fr_energy">   -234.85306350 </i>
    <i name="e_wo_entrp">   -232.78196746 </i>
    <i name="e_0_energy">   -233.81751548 </i>
   </energy>
  </scstep>
  <scstep>
   <time name="diag">   15.42   15.55</time>
   <time name="diis">   30.54   30.87</time>
   <time name="orth">    3.06    3.08</time>
   <time name="total">   52.94   53.45</time>
   <energy>
    <i name="e_fr_energy">   -234.85325687 </i>
    <i name="e_wo_entrp">   -232.78231951 </i>
    <i name="e_0_energy">   -233.81778819 </i>
   </energy>
  </scstep>
  <scstep>
   <time name="diag">   10.83   10.86</time>
   <time name="diis">   24.59   24.73</time>
   <time name="orth">    3.11    3.19</time>
   <time name="total">   40.91   41.21</time>
   <energy>
    <i name="e_fr_energy">   -234.85345287 </i>
    <i name="e_wo_entrp">   -232.78245867 </i>
    <i name="e_0_energy">   -233.81795577 </i>
   </energy>
  </scstep>
  <scstep>
   <time name="diag">   10.71   10.95</time>
   <time name="diis">   23.20   23.18</time>
   <time name="orth">    3.01    3.01</time>
   <time name="total">   40.95   41.35</time>
   <energy>
    <i name="e_fr_energy">   -234.85362956 </i>
    <i name="e_wo_entrp">   -232.78256266 </i>
    <i name="e_0_energy">   -233.81809611 </i>
   </energy>
  </scstep>
  <scstep>
   <time name="diag">   11.65   11.80</time>
   <time name="diis">   21.70   22.04</time>
   <time name="orth">    2.96    3.05</time>
   <time name="total">   38.73   39.35</time>
   <energy>
    <i name="e_fr_energy">   -234.85375866 </i>
    <i name="e_wo_entrp">   -232.78262333 </i>
    <i name="e_0_energy">   -233.81819100 </i>
   </energy>
  </scstep>
  <scstep>
   <time name="diag">   11.14   11.16</time>
   <time name="diis">   20.32   20.32</time>
   <time name="orth">    3.10    3.12</time>
   <time name="total">   37.58   37.92</time>
   <energy>
    <i name="e_fr_energy">   -234.85382719 </i>
    <i name="e_wo_entrp">   -232.78266592 </i>
    <i name="e_0_energy">   -233.81824656 </i>
   </energy>
  </scstep>
  <scstep>
   <time name="diag">   11.12   11.14</time>
   <time name="diis">   18.42   18.41</time>
   <time name="orth">    3.11    3.14</time>
   <time name="total">   35.16   35.22</time>
   <energy>
    <i name="e_fr_energy">   -234.85386449 </i>
    <i name="e_wo_entrp">   -232.78271486 </i>
    <i name="e_0_energy">   -233.81828968 </i>
   </energy>
  </scstep>
  <scstep>
   <time name="diag">   14.53   14.64</time>
   <time name="diis">   19.50   19.60</time>
   <time name="orth">    2.98    3.06</time>
   <time name="total">   40.78   41.26</time>
   <energy>
    <i name="e_fr_energy">   -234.85393137 </i>
    <i name="e_wo_entrp">   -232.78277937 </i>
    <i name="e_0_energy">   -233.81835537 </i>
   </energy>
  </scstep>
  <scstep>
   <time name="diag">   10.80   10.91</time>
   <time name="diis">   17.78   18.02</time>
   <time name="orth">    2.98    3.01</time>
   <time name="total">   33.96   34.37</time>
   <energy>
    <i name="e_fr_energy">   -234.85394668 </i>
    <i name="e_wo_entrp">   -232.78279143 </i>
    <i name="e_0_energy">   -233.81836906 </i>
   </energy>
  </scstep>
  <scstep>
   <time name="diag">   11.02   11.02</time>
   <time name="diis">   17.63   17.61</time>
   <time name="orth">    2.96    3.07</time>
   <time name="total">   34.12   34.29</time>
   <energy>
    <i name="e_fr_energy">   -234.85396332 </i>
    <i name="e_wo_entrp">   -232.78280385 </i>
    <i name="e_0_energy">   -233.81838358 </i>
   </energy>
  </scstep>
  <scstep>
   <time name="diag">   11.02   11.02</time>
   <time name="diis">   15.22   15.27</time>
   <time name="orth">    3.13    3.23</time>
   <time name="total">   31.84   32.00</time>
   <energy>
    <i name="e_fr_energy">   -234.85396644 </i>
    <i name="e_wo_entrp">   -232.78281344 </i>
    <i name="e_0_energy">   -233.81838994 </i>
   </energy>
  </scstep>
  <scstep>
   <time name="diag">   10.78   10.78</time>
   <time name="diis">   15.88   15.88</time>
   <time name="orth">    2.99    3.12</time>
   <time name="total">   32.70   32.94</time>
   <energy>
    <i name="e_fr_energy">   -234.85397021 </i>
    <i name="e_wo_entrp">   -232.78282451 </i>
    <i name="e_0_energy">   -233.81839736 </i>
   </energy>
  </scstep>
  <scstep>
   <time name="diag">   10.63   10.74</time>
   <time name="diis">   13.95   14.09</time>
   <time name="orth">    3.09    3.09</time>
   <time name="total">   27.73   28.02</time>
   <energy>
    <i name="alphaZ">    954.96919766 </i>
    <i name="ewald">  92433.63302684 </i>
    <i name="hartreedc">-120564.29851308 </i>
    <i name="XCdc">    141.48215841 </i>
    <i name="pawpsdc">  32529.66521301 </i>
    <i name="pawaedc"> -31611.93468839 </i>
    <i name="eentropy">     -2.07114522 </i>
    <i name="bandstr">   -683.54119822 </i>
    <i name="atom">  26567.24197818 </i>
    <i name="e_fr_energy">   -234.85397081 </i>
    <i name="e_wo_entrp">   -232.78282559 </i>
    <i name="e_0_energy">   -233.81839820 </i>
   </energy>
  </scstep>
  <structure>
   <crystal>
    <varray name="basis" >
     <v>       8.42164176       0.00000000       0.00000000 </v>
     <v>       4.21082088       7.29335571       0.00000000 </v>
     <v>       0.00000000       0.00000000      21.87624171 </v>
    </varray>
    <i name="volume">   1343.68315334 </i>
    <varray name="rec_basis" >
     <v>       0.11874169      -0.06855555       0.00000000 </v>
     <v>       0.00000000       0.13711110       0.00000000 </v>
     <v>       0.00000000       0.00000000       0.04571169 </v>
    </varray>
   </crystal>
   <varray name="positions" >
    <v>       0.00000000       0.00000000       0.34283768 </v>
    <v>       0.33333333       0.00000000       0.34283768 </v>
    <v>       0.66666667       0.00000000       0.34283768 </v>
    <v>       0.00000000       0.33333333       0.34283768 </v>
    <v>       0.33333333       0.33333333       0.34283768 </v>
    <v>       0.66666667       0.33333333       0.34283768 </v>
    <v>       0.00000000       0.66666667       0.34283768 </v>
    <v>       0.33333333       0.66666667       0.34283768 </v>
    <v>       0.66666667       0.66666667       0.34283768 </v>
    <v>       0.11111111       0.11111111       0.44761256 </v>
    <v>       0.44444444       0.11111111       0.44761256 </v>
    <v>       0.77777778       0.11111111       0.44761256 </v>
    <v>       0.11111111       0.44444444       0.44761256 </v>
    <v>       0.44444444       0.44444444       0.44761256 </v>
    <v>       0.77777778       0.44444444       0.44761256 </v>
    <v>       0.11111111       0.77777778       0.44761256 </v>
    <v>       0.44444444       0.77777778       0.44761256 </v>
    <v>       0.77777778       0.77777778       0.44761256 </v>
    <v>       0.88820547       0.22445954       0.55069151 </v>
    <v>       0.22300058       0.22368898       0.55243660 </v>
    <v>       0.55413284       0.22351347       0.55246309 </v>
    <v>       0.88845494       0.55825915       0.55088862 </v>
    <v>       0.22322365       0.55443862       0.55361985 </v>
    <v>       0.55412996       0.55813005       0.55089261 </v>
    <v>       0.88602044       0.89277274       0.55179515 </v>
    <v>       0.22204129       0.89281562       0.55181993 </v>
    <v>       0.55448833       0.89190382       0.55192433 </v>
    <v>       0.99710327       0.00655955       0.65657390 </v>
    <v>       0.32708936       0.00099583       0.66136048 </v>
    <v>       0.67293263       0.00075883       0.66136971 </v>
    <v>       0.99439822       0.34044797       0.65546069 </v>
    <v>       0.31975499       0.36159996       0.66267053 </v>
    <v>       0.66619260       0.34065839       0.65539671 </v>
    <v>       0.99317481       0.67754274       0.65673724 </v>
    <v>       0.33056111       0.67760331       0.65672030 </v>
    <v>       0.66700731       0.66749242       0.65596318 </v>
    <v>       0.37651796       0.24841292       0.75608303 </v>
    <v>       0.44478329       0.11145449       0.71041659 </v>
    <v>       0.47088025       0.28042251       0.78019430 </v>
    <v>       0.25004709       0.28100466       0.78023262 </v>
   </varray>
  </structure>
  <varray name="forces" >
   <v>      -0.00066552       0.04182184      -0.11426086 </v>
   <v>      -0.01931706      -0.00792834      -0.04408578 </v>
   <v>       0.01726190      -0.00790485      -0.04380973 </v>
   <v>      -0.01195158      -0.01519279      -0.08131580 </v>
   <v>      -0.00094990       0.00202803      -0.05128850 </v>
   <v>       0.00973962      -0.01511176      -0.08113042 </v>
   <v>      -0.02426063      -0.01377599      -0.04102251 </v>
   <v>       0.02236130      -0.01330818      -0.04129042 </v>
   <v>      -0.00117479      -0.01390935      -0.06861043 </v>
   <v>      -0.01526261      -0.05906483       0.03068358 </v>
   <v>       0.00426186       0.04412398       0.21060531 </v>
   <v>       0.02461777      -0.05706897       0.03209153 </v>
   <v>       0.10291271       0.04221701       0.14460554 </v>
   <v>      -0.09425727       0.04039978       0.14762783 </v>
   <v>       0.00461405       0.02974559      -0.00973927 </v>
   <v>       0.00539511      -0.06964864      -0.05135805 </v>
   <v>      -0.05565386       0.04188856       0.04300774 </v>
   <v>       0.06435055       0.04290839       0.03894163 </v>
   <v>      -0.00506001       0.00232005      -0.00269825 </v>
   <v>      -0.00451037      -0.00106664      -0.00669429 </v>
   <v>      -0.00213681      -0.00068252      -0.00791338 </v>
   <v>      -0.00149153      -0.00619751      -0.00634241 </v>
   <v>      -0.00052311      -0.00428041      -0.00619555 </v>
   <v>      -0.00135446      -0.00050166      -0.00920818 </v>
   <v>       0.00073172      -0.00222237      -0.00577729 </v>
   <v>      -0.00014735      -0.00634547      -0.00819888 </v>
   <v>      -0.00395232      -0.00040861      -0.00614725 </v>
   <v>       0.00057803      -0.00280633       0.00468527 </v>
   <v>       0.01133694       0.00138994       0.00501876 </v>
   <v>      -0.00637507       0.00454610       0.00218978 </v>
   <v>      -0.00376915       0.00309547       0.00321560 </v>
   <v>      -0.00092023      -0.00579674      -0.00224154 </v>
   <v>       0.00237008      -0.00180444       0.00718580 </v>
   <v>       0.00172550       0.00085550       0.00361571 </v>
   <v>      -0.00788103       0.00187218       0.00643809 </v>
   <v>      -0.00389275       0.00280570       0.00706459 </v>
   <v>      -0.00175537      -0.00602742       0.00582222 </v>
   <v>      -0.00371440       0.00384738       0.00005742 </v>
   <v>      -0.00908656       0.00508007      -0.00259739 </v>
   <v>       0.00780658       0.00010829      -0.00093022 </v>
  </varray>
  <varray name="stress" >
   <v>     -39.85954553      -0.01912812      -0.05549470 </v>
   <v>      -0.01912807     -36.87966493       0.17355920 </v>
   <v>      -0.05549462       0.17355925       0.01328711 </v>
  </varray>
  <energy>
   <i name="e_fr_energy">   -234.85397081 </i>
   <i name="e_wo_entrp">   -233.81839820 </i>
   <i name="e_0_energy">     -2.07114522 </i>
  </energy>
  <time name="totalsc"> 1881.41 1900.49</time>
  <eigenvalues>
   <array>
    <dimension dim="1">band</dimension>
    <dimension dim="2">kpoint</dimension>
    <dimension dim="3">spin</dimension>
    <field>eigene</field>
    <field>occ</field>
    <set>
     <set comment="spin 1">
      <set comment="kpoint 1">
       <r>  -13.6781    1.0000 </r>
       <r>   -8.9054    1.0000 </r>
       <r>   -7.7653    1.0000 </r>
       <r>   -6.4693    1.0000 </r>
       <r>   -5.8492    1.0000 </r>
       <r>   -5.7937    1.0000 </r>
       <r>   -5.4978    1.0000 </r>
       <r>   -5.4265    1.0000 </r>
       <r>   -5.3790    1.0000 </r>
       <r>   -5.3207    1.0000 </r>
       <r>   -5.2845    1.0000 </r>
       <r>   -5.2294    1.0000 </r>
       <r>   -5.1967    1.0000 </r>
       <r>   -5.1388    1.0000 </r>
       <r>   -4.8270    1.0000 </r>
       <r>   -4.7660    1.0000 </r>
       <r>   -4.7477    1.0000 </r>
       <r>   -4.7356    1.0000 </r>
       <r>   -4.7303    1.0000 </r>
       <r>   -4.6324    1.0000 </r>
       <r>   -4.4988    1.0000 </r>
       <r>   -4.3340    1.0000 </r>
       <r>   -4.2742    1.0000 </r>
       <r>   -4.2413    1.0000 </r>
       <r>   -4.2295    1.0000 </r>
       <r>   -4.1505    1.0000 </r>
       <r>   -4.1217    1.0000 </r>
       <r>   -4.0807    1.0000 </r>
       <r>   -4.0301    1.0000 </r>
       <r>   -3.9884    1.0000 </r>
       <r>   -3.9551    1.0000 </r>
       <r>   -3.9163    1.0000 </r>
       <r>   -3.9020    1.0000 </r>
       <r>   -3.8766    1.0000 </r>
       <r>   -3.8563    1.0000 </r>
       <r>   -3.8262    1.0000 </r>
       <r>   -3.8026    1.0000 </r>
       <r>   -3.7922    1.0000 </r>
       <r>   -3.7685    1.0000 </r>
       <r>   -3.7607    1.0000 </r>
       <r>   -3.7135    1.0000 </r>
       <r>   -3.6475    1.0000 </r>
       <r>   -3.5954    1.0000 </r>
       <r>   -3.5072    1.0000 </r>
       <r>   -3.2640    1.0000 </r>
       <r>   -3.2288    1.0000 </r>
       <r>   -3.2110    1.0000 </r>
       <r>   -3.1789    1.0000 </r>
       <r>   -3.1538    1.0000 </r>
       <r>   -3.1307    1.0000 </r>
       <r>   -3.1141    1.0000 </r>
       <r>   -3.0670    1.0000 </r>
       <r>   -3.0266    1.0000 </r>
       <r>   -3.0027    1.0000 </r>
       <r>   -2.9052    1.0000 </r>
       <r>   -2.8847    1.0000 </r>
       <r>   -2.8438    1.0000 </r>
       <r>   -2.8173    1.0000 </r>
       <r>   -2.6536    1.0000 </r>
       <r>   -2.5218    1.0000 </r>
       <r>   -2.4448    1.0000 </r>
       <r>   -2.3758    1.0000 </r>
       <r>   -2.3267    1.0000 </r>
       <r>   -2.3019    1.0000 </r>
       <r>   -2.2835    1.0000 </r>
       <r>   -2.2712    1.0000 </r>
       <r>   -2.2504    1.0000 </r>
       <r>   -2.2149    1.0000 </r>
       <r>   -2.2073    1.0000 </r>
       <r>   -2.1762    1.0000 </r>
       <r>   -2.1530    1.0000 </r>
       <r>   -2.1400    1.0000 </r>
       <r>   -2.0892    1.0000 </r>
       <r>   -2.0637    1.0000 </r>
       <r>   -2.0573    1.0000 </r>
       <r>   -2.0335    1.0000 </r>
       <r>   -2.0236    1.0000 </r>
       <r>   -2.0058    1.0000 </r>
       <r>   -1.9596    1.0000 </r>
       <r>   -1.9316    1.0000 </r>
       <r>   -1.9169    1.0000 </r>
       <r>   -1.9024    1.0000 </r>
       <r>   -1.8868    1.0000 </r>
       <r>   -1.8546    1.0000 </r>
       <r>   -1.8307    1.0000 </r>
       <r>   -1.8054    1.0000 </r>
       <r>   -1.7801    1.0000 </r>
       <r>   -1.7641    1.0000 </r>
       <r>   -1.6602    1.0000 </r>
       <r>   -1.6380    1.0000 </r>
       <r>   -1.6232    1.0000 </r>
       <r>   -1.6010    1.0000 </r>
       <r>   -1.5769    1.0000 </r>
       <r>   -1.5615    1.0000 </r>
       <r>   -1.5372    1.0000 </r>
       <r>   -1.5248    1.0000 </r>
       <r>   -1.5050    1.0000 </r>
       <r>   -1.4913    1.0000 </r>
       <r>   -1.4655    1.0000 </r>
       <r>   -1.4482    1.0000 </r>
       <r>   -1.4180    1.0000 </r>
       <r>   -1.4086    1.0000 </r>
       <r>   -1.3761    1.0000 </r>
       <r>   -1.3294    1.0000 </r>
       <r>   -1.3096    1.0000 </r>
       <r>   -1.2699    1.0000 </r>
       <r>   -1.2579    1.0000 </r>
       <r>   -1.2509    1.0000 </r>
       <r>   -1.2446    1.0000 </r>
       <r>   -1.2102    1.0000 </r>
       <r>   -1.1865    1.0000 </r>
       <r>   -1.1055    1.0000 </r>
       <r>   -1.0964    1.0000 </r>
       <r>   -0.9598    1.0000 </r>
       <r>   -0.9200    1.0000 </r>
       <r>   -0.8544    1.0000 </r>
       <r>   -0.7706    1.0000 </r>
       <r>   -0.7628    1.0000 </r>
       <r>   -0.7276    1.0000 </r>
       <r>   -0.6796    1.0000 </r>
       <r>   -0.6634    1.0000 </r>
       <r>   -0.6270    1.0000 </r>
       <r>   -0.6187    1.0000 </r>
       <r>   -0.6042    1.0000 </r>
       <r>   -0.5315    1.0000 </r>
       <r>   -0.5125    1.0000 </r>
       <r>   -0.4775    1.0000 </r>
       <r>   -0.4218    1.0000 </r>
       <r>   -0.3518    1.0000 </r>
       <r>   -0.3038    1.0000 </r>
       <r>   -0.2795    1.0000 </r>
       <r>   -0.2047    1.0000 </r>
       <r>   -0.1642    1.0000 </r>
       <r>   -0.1221    1.0000 </r>
       <r>   -0.1039    1.0000 </r>
       <r>   -0.0711    1.0000 </r>
       <r>   -0.0674    1.0000 </r>
       <r>   -0.0555    1.0000 </r>
       <r>   -0.0254    1.0000 </r>
       <r>   -0.0061    1.0000 </r>
       <r>    0.0389    1.0000 </r>
       <r>    0.0804    1.0000 </r>
       <r>    0.0929    1.0000 </r>
       <r>    0.1589    1.0000 </r>
       <r>    0.1804    1.0000 </r>
       <r>    0.2235    1.0000 </r>
       <r>    0.2395    1.0000 </r>
       <r>    0.2582    1.0000 </r>
       <r>    0.2779    1.0000 </r>
       <r>    0.3556    1.0000 </r>
       <r>    0.3709    1.0000 </r>
       <r>    0.3930    1.0000 </r>
       <r>    0.4420    0.9999 </r>
       <r>    0.4706    0.9999 </r>
       <r>    0.4956    0.9999 </r>
       <r>    0.5101    0.9999 </r>
       <r>    0.5639    0.9998 </r>
       <r>    0.5865    0.9998 </r>
       <r>    0.5907    0.9998 </r>
       <r>    0.6180    0.9997 </r>
       <r>    0.6244    0.9997 </r>
       <r>    0.6554    0.9996 </r>
       <r>    0.6808    0.9995 </r>
       <r>    0.7085    0.9993 </r>
       <r>    0.7289    0.9991 </r>
       <r>    0.7454    0.9990 </r>
       <r>    0.8013    0.9982 </r>
       <r>    0.8072    0.9981 </r>
       <r>    0.8379    0.9974 </r>
       <r>    0.8419    0.9973 </r>
       <r>    0.8619    0.9967 </r>
       <r>    0.8701    0.9964 </r>
       <r>    0.8902    0.9956 </r>
       <r>    0.9042    0.9949 </r>
       <r>    0.9096    0.9946 </r>
       <r>    0.9489    0.9921 </r>
       <r>    0.9861    0.9885 </r>
       <r>    0.9971    0.9872 </r>
       <r>    1.0410    0.9803 </r>
       <r>    1.0581    0.9767 </r>
       <r>    1.0686    0.9742 </r>
       <r>    1.1028    0.9640 </r>
       <r>    1.1202    0.9575 </r>
       <r>    1.1321    0.9524 </r>
       <r>    1.1508    0.9431 </r>
       <r>    1.1711    0.9312 </r>
       <r>    1.1919    0.9166 </r>
       <r>    1.2071    0.9042 </r>
       <r>    1.2162    0.8961 </r>
       <r>    1.2234    0.8892 </r>
       <r>    1.2392    0.8727 </r>
       <r>    1.2545    0.8546 </r>
       <r>    1.3213    0.7509 </r>
       <r>    1.4244    0.5182 </r>
       <r>    1.4460    0.4642 </r>
       <r>    1.4650    0.4173 </r>
       <r>    1.5013    0.3326 </r>
       <r>    1.5070    0.3200 </r>
       <r>    1.5380    0.2566 </r>
       <r>    1.6196    0.1324 </r>
       <r>    1.9228    0.0073 </r>
       <r>    2.0173    0.0029 </r>
       <r>    2.1846    0.0005 </r>
       <r>    2.2963    0.0002 </r>
       <r>    2.3512    0.0001 </r>
       <r>    2.5130    0.0000 </r>
       <r>    2.8878    0.0000 </r>
       <r>    3.3098    0.0000 </r>
       <r>    4.1596    0.0000 </r>
       <r>    4.4592    0.0000 </r>
       <r>    4.6165    0.0000 </r>
       <r>    4.7759    0.0000 </r>
       <r>    5.0086    0.0000 </r>
       <r>    5.0751    0.0000 </r>
       <r>    5.3914    0.0000 </r>
       <r>    5.7520    0.0000 </r>
       <r>    5.8338    0.0000 </r>
       <r>    6.2229    0.0000 </r>
       <r>    6.3116    0.0000 </r>
       <r>    6.3253    0.0000 </r>
       <r>    6.5744    0.0000 </r>
       <r>    6.6232    0.0000 </r>
       <r>    6.7395    0.0000 </r>
       <r>    6.8154    0.0000 </r>
       <r>    6.8937    0.0000 </r>
      </set>
      <set comment="kpoint 2">
       <r>  -13.6781    1.0000 </r>
       <r>   -8.9061    1.0000 </r>
       <r>   -7.7651    1.0000 </r>
       <r>   -6.4692    1.0000 </r>
       <r>   -5.8399    1.0000 </r>
       <r>   -5.8107    1.0000 </r>
       <r>   -5.4937    1.0000 </r>
       <r>   -5.4022    1.0000 </r>
       <r>   -5.3788    1.0000 </r>
       <r>   -5.3270    1.0000 </r>
       <r>   -5.2827    1.0000 </r>
       <r>   -5.2347    1.0000 </r>
       <r>   -5.2229    1.0000 </r>
       <r>   -5.1298    1.0000 </r>
       <r>   -4.8102    1.0000 </r>
       <r>   -4.7761    1.0000 </r>
       <r>   -4.7378    1.0000 </r>
       <r>   -4.7347    1.0000 </r>
       <r>   -4.7178    1.0000 </r>
       <r>   -4.6585    1.0000 </r>
       <r>   -4.4884    1.0000 </r>
       <r>   -4.3297    1.0000 </r>
       <r>   -4.2782    1.0000 </r>
       <r>   -4.2391    1.0000 </r>
       <r>   -4.2277    1.0000 </r>
       <r>   -4.1768    1.0000 </r>
       <r>   -4.0917    1.0000 </r>
       <r>   -4.0728    1.0000 </r>
       <r>   -4.0578    1.0000 </r>
       <r>   -3.9718    1.0000 </r>
       <r>   -3.9503    1.0000 </r>
       <r>   -3.9067    1.0000 </r>
       <r>   -3.8895    1.0000 </r>
       <r>   -3.8882    1.0000 </r>
       <r>   -3.8513    1.0000 </r>
       <r>   -3.8386    1.0000 </r>
       <r>   -3.8046    1.0000 </r>
       <r>   -3.7950    1.0000 </r>
       <r>   -3.7709    1.0000 </r>
       <r>   -3.7561    1.0000 </r>
       <r>   -3.7338    1.0000 </r>
       <r>   -3.6328    1.0000 </r>
       <r>   -3.5968    1.0000 </r>
       <r>   -3.5144    1.0000 </r>
       <r>   -3.2705    1.0000 </r>
       <r>   -3.2322    1.0000 </r>
       <r>   -3.2026    1.0000 </r>
       <r>   -3.1783    1.0000 </r>
       <r>   -3.1484    1.0000 </r>
       <r>   -3.1442    1.0000 </r>
       <r>   -3.1004    1.0000 </r>
       <r>   -3.0656    1.0000 </r>
       <r>   -3.0439    1.0000 </r>
       <r>   -3.0002    1.0000 </r>
       <r>   -2.9007    1.0000 </r>
       <r>   -2.8981    1.0000 </r>
       <r>   -2.8257    1.0000 </r>
       <r>   -2.8170    1.0000 </r>
       <r>   -2.6679    1.0000 </r>
       <r>   -2.5147    1.0000 </r>
       <r>   -2.4486    1.0000 </r>
       <r>   -2.3836    1.0000 </r>
       <r>   -2.3420    1.0000 </r>
       <r>   -2.2928    1.0000 </r>
       <r>   -2.2704    1.0000 </r>
       <r>   -2.2578    1.0000 </r>
       <r>   -2.2544    1.0000 </r>
       <r>   -2.2213    1.0000 </r>
       <r>   -2.1927    1.0000 </r>
       <r>   -2.1813    1.0000 </r>
       <r>   -2.1449    1.0000 </r>
       <r>   -2.1423    1.0000 </r>
       <r>   -2.1069    1.0000 </r>
       <r>   -2.0637    1.0000 </r>
       <r>   -2.0595    1.0000 </r>
       <r>   -2.0354    1.0000 </r>
       <r>   -2.0157    1.0000 </r>
       <r>   -2.0091    1.0000 </r>
       <r>   -1.9676    1.0000 </r>
       <r>   -1.9519    1.0000 </r>
       <r>   -1.9103    1.0000 </r>
       <r>   -1.9008    1.0000 </r>
       <r>   -1.8752    1.0000 </r>
       <r>   -1.8669    1.0000 </r>
       <r>   -1.8150    1.0000 </r>
       <r>   -1.8065    1.0000 </r>
       <r>   -1.7929    1.0000 </r>
       <r>   -1.7591    1.0000 </r>
       <r>   -1.6514    1.0000 </r>
       <r>   -1.6419    1.0000 </r>
       <r>   -1.6381    1.0000 </r>
       <r>   -1.5907    1.0000 </r>
       <r>   -1.5811    1.0000 </r>
       <r>   -1.5603    1.0000 </r>
       <r>   -1.5460    1.0000 </r>
       <r>   -1.5147    1.0000 </r>
       <r>   -1.5005    1.0000 </r>
       <r>   -1.4696    1.0000 </r>
       <r>   -1.4681    1.0000 </r>
       <r>   -1.4529    1.0000 </r>
       <r>   -1.4170    1.0000 </r>
       <r>   -1.4156    1.0000 </r>
       <r>   -1.3779    1.0000 </r>
       <r>   -1.3348    1.0000 </r>
       <r>   -1.2832    1.0000 </r>
       <r>   -1.2753    1.0000 </r>
       <r>   -1.2515    1.0000 </r>
       <r>   -1.2503    1.0000 </r>
       <r>   -1.2452    1.0000 </r>
       <r>   -1.2036    1.0000 </r>
       <r>   -1.1692    1.0000 </r>
       <r>   -1.1513    1.0000 </r>
       <r>   -1.1069    1.0000 </r>
       <r>   -0.9484    1.0000 </r>
       <r>   -0.9113    1.0000 </r>
       <r>   -0.8680    1.0000 </r>
       <r>   -0.7775    1.0000 </r>
       <r>   -0.7649    1.0000 </r>
       <r>   -0.7066    1.0000 </r>
       <r>   -0.6844    1.0000 </r>
       <r>   -0.6535    1.0000 </r>
       <r>   -0.6187    1.0000 </r>
       <r>   -0.6143    1.0000 </r>
       <r>   -0.5787    1.0000 </r>
       <r>   -0.5710    1.0000 </r>
       <r>   -0.5097    1.0000 </r>
       <r>   -0.4957    1.0000 </r>
       <r>   -0.3874    1.0000 </r>
       <r>   -0.3482    1.0000 </r>
       <r>   -0.3028    1.0000 </r>
       <r>   -0.3012    1.0000 </r>
       <r>   -0.2030    1.0000 </r>
       <r>   -0.1838    1.0000 </r>
       <r>   -0.1345    1.0000 </r>
       <r>   -0.0964    1.0000 </r>
       <r>   -0.0715    1.0000 </r>
       <r>   -0.0688    1.0000 </r>
       <r>   -0.0589    1.0000 </r>
       <r>   -0.0327    1.0000 </r>
       <r>    0.0216    1.0000 </r>
       <r>    0.0634    1.0000 </r>
       <r>    0.0725    1.0000 </r>
       <r>    0.1164    1.0000 </r>
       <r>    0.1475    1.0000 </r>
       <r>    0.2078    1.0000 </r>
       <r>    0.2246    1.0000 </r>
       <r>    0.2406    1.0000 </r>
       <r>    0.2502    1.0000 </r>
       <r>    0.2689    1.0000 </r>
       <r>    0.3526    1.0000 </r>
       <r>    0.3532    1.0000 </r>
       <r>    0.4045    1.0000 </r>
       <r>    0.4267    1.0000 </r>
       <r>    0.4663    0.9999 </r>
       <r>    0.4843    0.9999 </r>
       <r>    0.5049    0.9999 </r>
       <r>    0.5539    0.9998 </r>
       <r>    0.5751    0.9998 </r>
       <r>    0.5918    0.9998 </r>
       <r>    0.6315    0.9997 </r>
       <r>    0.6342    0.9997 </r>
       <r>    0.6613    0.9995 </r>
       <r>    0.6829    0.9994 </r>
       <r>    0.7117    0.9993 </r>
       <r>    0.7383    0.9990 </r>
       <r>    0.7437    0.9990 </r>
       <r>    0.7979    0.9982 </r>
       <r>    0.8120    0.9980 </r>
       <r>    0.8397    0.9973 </r>
       <r>    0.8442    0.9972 </r>
       <r>    0.8550    0.9969 </r>
       <r>    0.8604    0.9967 </r>
       <r>    0.8867    0.9957 </r>
       <r>    0.8977    0.9952 </r>
       <r>    0.9010    0.9951 </r>
       <r>    0.9617    0.9910 </r>
       <r>    0.9890    0.9882 </r>
       <r>    0.9967    0.9873 </r>
       <r>    1.0502    0.9784 </r>
       <r>    1.0532    0.9778 </r>
       <r>    1.0792    0.9714 </r>
       <r>    1.1018    0.9644 </r>
       <r>    1.1209    0.9572 </r>
       <r>    1.1335    0.9517 </r>
       <r>    1.1351    0.9510 </r>
       <r>    1.1707    0.9315 </r>
       <r>    1.1965    0.9131 </r>
       <r>    1.2100    0.9017 </r>
       <r>    1.2162    0.8961 </r>
       <r>    1.2241    0.8885 </r>
       <r>    1.2455    0.8655 </r>
       <r>    1.2508    0.8592 </r>
       <r>    1.3350    0.7245 </r>
       <r>    1.4033    0.5705 </r>
       <r>    1.4466    0.4626 </r>
       <r>    1.4657    0.4157 </r>
       <r>    1.5018    0.3315 </r>
       <r>    1.5084    0.3170 </r>
       <r>    1.5348    0.2629 </r>
       <r>    1.6035    0.1520 </r>
       <r>    1.9597    0.0051 </r>
       <r>    1.9963    0.0035 </r>
       <r>    2.1679    0.0006 </r>
       <r>    2.2756    0.0002 </r>
       <r>    2.3780    0.0001 </r>
       <r>    2.5119    0.0000 </r>
       <r>    2.8872    0.0000 </r>
       <r>    3.3369    0.0000 </r>
       <r>    4.1556    0.0000 </r>
       <r>    4.4404    0.0000 </r>
       <r>    4.5970    0.0000 </r>
       <r>    4.7681    0.0000 </r>
       <r>    5.0633    0.0000 </r>
       <r>    5.0700    0.0000 </r>
       <r>    5.3783    0.0000 </r>
       <r>    5.7774    0.0000 </r>
       <r>    5.8287    0.0000 </r>
       <r>    6.1819    0.0000 </r>
       <r>    6.3098    0.0000 </r>
       <r>    6.3187    0.0000 </r>
       <r>    6.6243    0.0000 </r>
       <r>    6.6329    0.0000 </r>
       <r>    6.7351    0.0000 </r>
       <r>    6.8158    0.0000 </r>
       <r>    7.0246    0.0000 </r>
      </set>
      <set comment="kpoint 3">
       <r>  -13.6781    1.0000 </r>
       <r>   -8.9054    1.0000 </r>
       <r>   -7.7653    1.0000 </r>
       <r>   -6.4693    1.0000 </r>
       <r>   -5.8492    1.0000 </r>
       <r>   -5.7936    1.0000 </r>
       <r>   -5.4961    1.0000 </r>
       <r>   -5.4265    1.0000 </r>
       <r>   -5.3808    1.0000 </r>
       <r>   -5.3208    1.0000 </r>
       <r>   -5.2847    1.0000 </r>
       <r>   -5.2307    1.0000 </r>
       <r>   -5.1951    1.0000 </r>
       <r>   -5.1388    1.0000 </r>
       <r>   -4.8272    1.0000 </r>
       <r>   -4.7671    1.0000 </r>
       <r>   -4.7476    1.0000 </r>
       <r>   -4.7351    1.0000 </r>
       <r>   -4.7293    1.0000 </r>
       <r>   -4.6324    1.0000 </r>
       <r>   -4.4987    1.0000 </r>
       <r>   -4.3342    1.0000 </r>
       <r>   -4.2743    1.0000 </r>
       <r>   -4.2411    1.0000 </r>
       <r>   -4.2297    1.0000 </r>
       <r>   -4.1500    1.0000 </r>
       <r>   -4.1220    1.0000 </r>
       <r>   -4.0810    1.0000 </r>
       <r>   -4.0302    1.0000 </r>
       <r>   -3.9885    1.0000 </r>
       <r>   -3.9551    1.0000 </r>
       <r>   -3.9163    1.0000 </r>
       <r>   -3.9013    1.0000 </r>
       <r>   -3.8766    1.0000 </r>
       <r>   -3.8562    1.0000 </r>
       <r>   -3.8259    1.0000 </r>
       <r>   -3.8026    1.0000 </r>
       <r>   -3.7928    1.0000 </r>
       <r>   -3.7686    1.0000 </r>
       <r>   -3.7610    1.0000 </r>
       <r>   -3.7139    1.0000 </r>
       <r>   -3.6479    1.0000 </r>
       <r>   -3.5944    1.0000 </r>
       <r>   -3.5072    1.0000 </r>
       <r>   -3.2641    1.0000 </r>
       <r>   -3.2286    1.0000 </r>
       <r>   -3.2109    1.0000 </r>
       <r>   -3.1787    1.0000 </r>
       <r>   -3.1538    1.0000 </r>
       <r>   -3.1313    1.0000 </r>
       <r>   -3.1144    1.0000 </r>
       <r>   -3.0670    1.0000 </r>
       <r>   -3.0267    1.0000 </r>
       <r>   -3.0028    1.0000 </r>
       <r>   -2.9052    1.0000 </r>
       <r>   -2.8845    1.0000 </r>
       <r>   -2.8439    1.0000 </r>
       <r>   -2.8172    1.0000 </r>
       <r>   -2.6534    1.0000 </r>
       <r>   -2.5219    1.0000 </r>
       <r>   -2.4449    1.0000 </r>
       <r>   -2.3764    1.0000 </r>
       <r>   -2.3269    1.0000 </r>
       <r>   -2.3024    1.0000 </r>
       <r>   -2.2833    1.0000 </r>
       <r>   -2.2713    1.0000 </r>
       <r>   -2.2510    1.0000 </r>
       <r>   -2.2145    1.0000 </r>
       <r>   -2.2077    1.0000 </r>
       <r>   -2.1752    1.0000 </r>
       <r>   -2.1529    1.0000 </r>
       <r>   -2.1408    1.0000 </r>
       <r>   -2.0895    1.0000 </r>
       <r>   -2.0627    1.0000 </r>
       <r>   -2.0577    1.0000 </r>
       <r>   -2.0335    1.0000 </r>
       <r>   -2.0244    1.0000 </r>
       <r>   -2.0053    1.0000 </r>
       <r>   -1.9586    1.0000 </r>
       <r>   -1.9325    1.0000 </r>
       <r>   -1.9157    1.0000 </r>
       <r>   -1.9025    1.0000 </r>
       <r>   -1.8856    1.0000 </r>
       <r>   -1.8539    1.0000 </r>
       <r>   -1.8315    1.0000 </r>
       <r>   -1.8045    1.0000 </r>
       <r>   -1.7805    1.0000 </r>
       <r>   -1.7660    1.0000 </r>
       <r>   -1.6577    1.0000 </r>
       <r>   -1.6400    1.0000 </r>
       <r>   -1.6231    1.0000 </r>
       <r>   -1.6003    1.0000 </r>
       <r>   -1.5760    1.0000 </r>
       <r>   -1.5632    1.0000 </r>
       <r>   -1.5394    1.0000 </r>
       <r>   -1.5235    1.0000 </r>
       <r>   -1.5046    1.0000 </r>
       <r>   -1.4905    1.0000 </r>
       <r>   -1.4650    1.0000 </r>
       <r>   -1.4482    1.0000 </r>
       <r>   -1.4179    1.0000 </r>
       <r>   -1.4087    1.0000 </r>
       <r>   -1.3766    1.0000 </r>
       <r>   -1.3289    1.0000 </r>
       <r>   -1.3103    1.0000 </r>
       <r>   -1.2704    1.0000 </r>
       <r>   -1.2580    1.0000 </r>
       <r>   -1.2506    1.0000 </r>
       <r>   -1.2440    1.0000 </r>
       <r>   -1.2093    1.0000 </r>
       <r>   -1.1851    1.0000 </r>
       <r>   -1.1060    1.0000 </r>
       <r>   -1.0982    1.0000 </r>
       <r>   -0.9593    1.0000 </r>
       <r>   -0.9202    1.0000 </r>
       <r>   -0.8548    1.0000 </r>
       <r>   -0.7705    1.0000 </r>
       <r>   -0.7627    1.0000 </r>
       <r>   -0.7280    1.0000 </r>
       <r>   -0.6801    1.0000 </r>
       <r>   -0.6636    1.0000 </r>
       <r>   -0.6273    1.0000 </r>
       <r>   -0.6181    1.0000 </r>
       <r>   -0.6036    1.0000 </r>
       <r>   -0.5306    1.0000 </r>
       <r>   -0.5128    1.0000 </r>
       <r>   -0.4772    1.0000 </r>
       <r>   -0.4221    1.0000 </r>
       <r>   -0.3516    1.0000 </r>
       <r>   -0.3034    1.0000 </r>
       <r>   -0.2788    1.0000 </r>
       <r>   -0.2048    1.0000 </r>
       <r>   -0.1643    1.0000 </r>
       <r>   -0.1221    1.0000 </r>
       <r>   -0.1043    1.0000 </r>
       <r>   -0.0701    1.0000 </r>
       <r>   -0.0679    1.0000 </r>
       <r>   -0.0558    1.0000 </r>
       <r>   -0.0247    1.0000 </r>
       <r>   -0.0060    1.0000 </r>
       <r>    0.0397    1.0000 </r>
       <r>    0.0802    1.0000 </r>
       <r>    0.0930    1.0000 </r>
       <r>    0.1588    1.0000 </r>
       <r>    0.1808    1.0000 </r>
       <r>    0.2229    1.0000 </r>
       <r>    0.2398    1.0000 </r>
       <r>    0.2581    1.0000 </r>
       <r>    0.2772    1.0000 </r>
       <r>    0.3557    1.0000 </r>
       <r>    0.3697    1.0000 </r>
       <r>    0.3933    1.0000 </r>
       <r>    0.4419    0.9999 </r>
       <r>    0.4698    0.9999 </r>
       <r>    0.4949    0.9999 </r>
       <r>    0.5100    0.9999 </r>
       <r>    0.5633    0.9998 </r>
       <r>    0.5860    0.9998 </r>
       <r>    0.5913    0.9998 </r>
       <r>    0.6183    0.9997 </r>
       <r>    0.6244    0.9997 </r>
       <r>    0.6558    0.9996 </r>
       <r>    0.6812    0.9994 </r>
       <r>    0.7092    0.9993 </r>
       <r>    0.7291    0.9991 </r>
       <r>    0.7453    0.9990 </r>
       <r>    0.8011    0.9982 </r>
       <r>    0.8076    0.9981 </r>
       <r>    0.8380    0.9974 </r>
       <r>    0.8429    0.9972 </r>
       <r>    0.8613    0.9967 </r>
       <r>    0.8694    0.9964 </r>
       <r>    0.8899    0.9956 </r>
       <r>    0.9045    0.9949 </r>
       <r>    0.9090    0.9947 </r>
       <r>    0.9500    0.9920 </r>
       <r>    0.9853    0.9886 </r>
       <r>    0.9970    0.9872 </r>
       <r>    1.0412    0.9803 </r>
       <r>    1.0582    0.9767 </r>
       <r>    1.0676    0.9744 </r>
       <r>    1.1019    0.9643 </r>
       <r>    1.1211    0.9571 </r>
       <r>    1.1324    0.9522 </r>
       <r>    1.1517    0.9426 </r>
       <r>    1.1711    0.9312 </r>
       <r>    1.1932    0.9157 </r>
       <r>    1.2075    0.9039 </r>
       <r>    1.2170    0.8954 </r>
       <r>    1.2233    0.8893 </r>
       <r>    1.2386    0.8734 </r>
       <r>    1.2540    0.8552 </r>
       <r>    1.3203    0.7529 </r>
       <r>    1.4254    0.5157 </r>
       <r>    1.4462    0.4636 </r>
       <r>    1.4633    0.4215 </r>
       <r>    1.5008    0.3336 </r>
       <r>    1.5073    0.3195 </r>
       <r>    1.5373    0.2580 </r>
       <r>    1.6194    0.1327 </r>
       <r>    1.9237    0.0072 </r>
       <r>    2.0172    0.0029 </r>
       <r>    2.1838    0.0005 </r>
       <r>    2.2967    0.0002 </r>
       <r>    2.3500    0.0001 </r>
       <r>    2.5141    0.0000 </r>
       <r>    2.8879    0.0000 </r>
       <r>    3.3097    0.0000 </r>
       <r>    4.1599    0.0000 </r>
       <r>    4.4598    0.0000 </r>
       <r>    4.6151    0.0000 </r>
       <r>    4.7760    0.0000 </r>
       <r>    5.0088    0.0000 </r>
       <r>    5.0750    0.0000 </r>
       <r>    5.3917    0.0000 </r>
       <r>    5.7524    0.0000 </r>
       <r>    5.8343    0.0000 </r>
       <r>    6.2212    0.0000 </r>
       <r>    6.3112    0.0000 </r>
       <r>    6.3252    0.0000 </r>
       <r>    6.5763    0.0000 </r>
       <r>    6.6235    0.0000 </r>
       <r>    6.7392    0.0000 </r>
       <r>    6.8076    0.0000 </r>
       <r>    7.0278    0.0000 </r>
      </set>
      <set comment="kpoint 4">
       <r>  -13.6775    1.0000 </r>
       <r>   -8.8912    1.0000 </r>
       <r>   -7.6172    1.0000 </r>
       <r>   -6.3408    1.0000 </r>
       <r>   -5.9620    1.0000 </r>
       <r>   -5.8128    1.0000 </r>
       <r>   -5.7110    1.0000 </r>
       <r>   -5.6077    1.0000 </r>
       <r>   -5.2804    1.0000 </r>
       <r>   -5.1743    1.0000 </r>
       <r>   -5.1479    1.0000 </r>
       <r>   -5.0958    1.0000 </r>
       <r>   -5.0538    1.0000 </r>
       <r>   -5.0230    1.0000 </r>
       <r>   -4.9162    1.0000 </r>
       <r>   -4.8138    1.0000 </r>
       <r>   -4.7767    1.0000 </r>
       <r>   -4.7293    1.0000 </r>
       <r>   -4.6174    1.0000 </r>
       <r>   -4.5189    1.0000 </r>
       <r>   -4.4764    1.0000 </r>
       <r>   -4.3207    1.0000 </r>
       <r>   -4.2761    1.0000 </r>
       <r>   -4.2366    1.0000 </r>
       <r>   -4.1991    1.0000 </r>
       <r>   -4.1469    1.0000 </r>
       <r>   -4.1318    1.0000 </r>
       <r>   -4.0835    1.0000 </r>
       <r>   -4.0476    1.0000 </r>
       <r>   -4.0258    1.0000 </r>
       <r>   -3.9920    1.0000 </r>
       <r>   -3.9851    1.0000 </r>
       <r>   -3.9401    1.0000 </r>
       <r>   -3.9298    1.0000 </r>
       <r>   -3.8906    1.0000 </r>
       <r>   -3.8595    1.0000 </r>
       <r>   -3.8207    1.0000 </r>
       <r>   -3.7817    1.0000 </r>
       <r>   -3.6540    1.0000 </r>
       <r>   -3.6070    1.0000 </r>
       <r>   -3.5847    1.0000 </r>
       <r>   -3.5673    1.0000 </r>
       <r>   -3.5107    1.0000 </r>
       <r>   -3.4630    1.0000 </r>
       <r>   -3.3254    1.0000 </r>
       <r>   -3.2674    1.0000 </r>
       <r>   -3.2566    1.0000 </r>
       <r>   -3.2326    1.0000 </r>
       <r>   -3.2049    1.0000 </r>
       <r>   -3.1685    1.0000 </r>
       <r>   -3.1448    1.0000 </r>
       <r>   -3.0690    1.0000 </r>
       <r>   -2.9985    1.0000 </r>
       <r>   -2.9570    1.0000 </r>
       <r>   -2.9080    1.0000 </r>
       <r>   -2.8944    1.0000 </r>
       <r>   -2.8431    1.0000 </r>
       <r>   -2.8199    1.0000 </r>
       <r>   -2.6946    1.0000 </r>
       <r>   -2.6233    1.0000 </r>
       <r>   -2.6009    1.0000 </r>
       <r>   -2.5219    1.0000 </r>
       <r>   -2.4918    1.0000 </r>
       <r>   -2.4296    1.0000 </r>
       <r>   -2.3937    1.0000 </r>
       <r>   -2.3749    1.0000 </r>
       <r>   -2.3494    1.0000 </r>
       <r>   -2.3269    1.0000 </r>
       <r>   -2.2852    1.0000 </r>
       <r>   -2.2645    1.0000 </r>
       <r>   -2.2281    1.0000 </r>
       <r>   -2.1947    1.0000 </r>
       <r>   -2.1453    1.0000 </r>
       <r>   -2.1244    1.0000 </r>
       <r>   -2.1145    1.0000 </r>
       <r>   -2.0923    1.0000 </r>
       <r>   -2.0757    1.0000 </r>
       <r>   -2.0428    1.0000 </r>
       <r>   -1.9936    1.0000 </r>
       <r>   -1.9247    1.0000 </r>
       <r>   -1.9042    1.0000 </r>
       <r>   -1.8590    1.0000 </r>
       <r>   -1.8312    1.0000 </r>
       <r>   -1.8245    1.0000 </r>
       <r>   -1.8033    1.0000 </r>
       <r>   -1.7748    1.0000 </r>
       <r>   -1.7622    1.0000 </r>
       <r>   -1.7299    1.0000 </r>
       <r>   -1.7049    1.0000 </r>
       <r>   -1.6950    1.0000 </r>
       <r>   -1.6601    1.0000 </r>
       <r>   -1.6329    1.0000 </r>
       <r>   -1.6157    1.0000 </r>
       <r>   -1.5988    1.0000 </r>
       <r>   -1.5761    1.0000 </r>
       <r>   -1.5574    1.0000 </r>
       <r>   -1.5375    1.0000 </r>
       <r>   -1.5255    1.0000 </r>
       <r>   -1.4860    1.0000 </r>
       <r>   -1.4793    1.0000 </r>
       <r>   -1.4510    1.0000 </r>
       <r>   -1.4149    1.0000 </r>
       <r>   -1.3962    1.0000 </r>
       <r>   -1.3720    1.0000 </r>
       <r>   -1.3537    1.0000 </r>
       <r>   -1.3415    1.0000 </r>
       <r>   -1.3017    1.0000 </r>
       <r>   -1.2745    1.0000 </r>
       <r>   -1.2428    1.0000 </r>
       <r>   -1.1987    1.0000 </r>
       <r>   -1.1884    1.0000 </r>
       <r>   -1.1588    1.0000 </r>
       <r>   -1.1142    1.0000 </r>
       <r>   -1.0988    1.0000 </r>
       <r>   -1.0454    1.0000 </r>
       <r>   -0.9947    1.0000 </r>
       <r>   -0.9638    1.0000 </r>
       <r>   -0.9389    1.0000 </r>
       <r>   -0.9011    1.0000 </r>
       <r>   -0.7460    1.0000 </r>
       <r>   -0.7258    1.0000 </r>
       <r>   -0.6885    1.0000 </r>
       <r>   -0.6514    1.0000 </r>
       <r>   -0.6084    1.0000 </r>
       <r>   -0.5997    1.0000 </r>
       <r>   -0.5545    1.0000 </r>
       <r>   -0.5126    1.0000 </r>
       <r>   -0.4397    1.0000 </r>
       <r>   -0.4171    1.0000 </r>
       <r>   -0.3679    1.0000 </r>
       <r>   -0.3423    1.0000 </r>
       <r>   -0.3088    1.0000 </r>
       <r>   -0.2176    1.0000 </r>
       <r>   -0.1985    1.0000 </r>
       <r>   -0.1863    1.0000 </r>
       <r>   -0.1711    1.0000 </r>
       <r>   -0.1397    1.0000 </r>
       <r>   -0.1098    1.0000 </r>
       <r>   -0.0529    1.0000 </r>
       <r>   -0.0333    1.0000 </r>
       <r>    0.0205    1.0000 </r>
       <r>    0.0520    1.0000 </r>
       <r>    0.1146    1.0000 </r>
       <r>    0.1354    1.0000 </r>
       <r>    0.1552    1.0000 </r>
       <r>    0.1733    1.0000 </r>
       <r>    0.1837    1.0000 </r>
       <r>    0.2120    1.0000 </r>
       <r>    0.2504    1.0000 </r>
       <r>    0.2674    1.0000 </r>
       <r>    0.3062    1.0000 </r>
       <r>    0.3305    1.0000 </r>
       <r>    0.3814    1.0000 </r>
       <r>    0.4015    1.0000 </r>
       <r>    0.4224    1.0000 </r>
       <r>    0.4660    0.9999 </r>
       <r>    0.4771    0.9999 </r>
       <r>    0.5035    0.9999 </r>
       <r>    0.5607    0.9998 </r>
       <r>    0.5770    0.9998 </r>
       <r>    0.6214    0.9997 </r>
       <r>    0.6773    0.9995 </r>
       <r>    0.6933    0.9994 </r>
       <r>    0.7555    0.9988 </r>
       <r>    0.7725    0.9986 </r>
       <r>    0.8304    0.9976 </r>
       <r>    0.8420    0.9973 </r>
       <r>    0.8863    0.9957 </r>
       <r>    0.9006    0.9951 </r>
       <r>    0.9541    0.9916 </r>
       <r>    0.9806    0.9891 </r>
       <r>    0.9981    0.9871 </r>
       <r>    1.0401    0.9805 </r>
       <r>    1.0641    0.9753 </r>
       <r>    1.0853    0.9696 </r>
       <r>    1.1095    0.9616 </r>
       <r>    1.1397    0.9488 </r>
       <r>    1.1788    0.9261 </r>
       <r>    1.1916    0.9169 </r>
       <r>    1.2210    0.8916 </r>
       <r>    1.2293    0.8832 </r>
       <r>    1.2696    0.8349 </r>
       <r>    1.2818    0.8174 </r>
       <r>    1.3024    0.7845 </r>
       <r>    1.3175    0.7580 </r>
       <r>    1.3636    0.6639 </r>
       <r>    1.3948    0.5912 </r>
       <r>    1.4015    0.5747 </r>
       <r>    1.4282    0.5088 </r>
       <r>    1.4534    0.4457 </r>
       <r>    1.4653    0.4166 </r>
       <r>    1.4990    0.3377 </r>
       <r>    1.5378    0.2570 </r>
       <r>    1.6026    0.1533 </r>
       <r>    1.6193    0.1328 </r>
       <r>    1.6459    0.1050 </r>
       <r>    1.6968    0.0659 </r>
       <r>    1.7255    0.0503 </r>
       <r>    1.8204    0.0201 </r>
       <r>    1.9059    0.0086 </r>
       <r>    1.9706    0.0045 </r>
       <r>    2.1064    0.0012 </r>
       <r>    2.3719    0.0001 </r>
       <r>    2.6561    0.0000 </r>
       <r>    2.8877    0.0000 </r>
       <r>    2.9878    0.0000 </r>
       <r>    3.1493    0.0000 </r>
       <r>    3.2326    0.0000 </r>
       <r>    3.9877    0.0000 </r>
       <r>    4.3007    0.0000 </r>
       <r>    4.6440    0.0000 </r>
       <r>    4.8201    0.0000 </r>
       <r>    4.9922    0.0000 </r>
       <r>    5.1024    0.0000 </r>
       <r>    5.3412    0.0000 </r>
       <r>    5.4303    0.0000 </r>
       <r>    5.5992    0.0000 </r>
       <r>    5.8094    0.0000 </r>
       <r>    5.9686    0.0000 </r>
       <r>    6.3551    0.0000 </r>
       <r>    6.3839    0.0000 </r>
       <r>    6.4667    0.0000 </r>
       <r>    6.6897    0.0000 </r>
       <r>    6.8495    0.0000 </r>
       <r>    6.8826    0.0000 </r>
      </set>
      <set comment="kpoint 5">
[...]
   <v name="MAGDIPOLOUT">      0.00000000      0.00000000      0.00000000</v>
  </separator>
  <dos>
   <i name="efermi">      1.43165522 </i>
   <total>
    <array>
     <dimension dim="1">gridpoints</dimension>
     <dimension dim="2">spin</dimension>
     <field>energy</field>
     <field>total</field>
     <field>integrated</field>
     <set>
      <set comment="spin 1">
       <r>   -14.7215     0.0000     0.0000 </r>
       <r>   -14.6450     0.0000     0.0000 </r>
       <r>   -14.5684     0.0000     0.0000 </r>
       <r>   -14.4919     0.0075     0.0006 </r>
       <r>   -14.4154     0.0086     0.0012 </r>
       <r>   -14.3389     0.0185     0.0027 </r>
       <r>   -14.2624     0.0398     0.0057 </r>
       <r>   -14.1859     0.0851     0.0122 </r>
       <r>   -14.1094     0.1810     0.0261 </r>
       <r>   -14.0328     0.3806     0.0552 </r>
       <r>   -13.9563     0.7811     0.1149 </r>
       <r>   -13.8798     1.5265     0.2317 </r>
       <r>   -13.8033     2.7158     0.4395 </r>
       <r>   -13.7268     4.1124     0.7542 </r>
       <r>   -13.6503     4.9229     1.1309 </r>
       <r>   -13.5738     4.4742     1.4732 </r>
       <r>   -13.4973     3.1565     1.7147 </r>
       <r>   -13.4207     1.8506     1.8563 </r>
       <r>   -13.3442     0.9694     1.9305 </r>
       <r>   -13.2677     0.4779     1.9670 </r>
       <r>   -13.1912     0.2286     1.9845 </r>
       <r>   -13.1147     0.1078     1.9928 </r>
       <r>   -13.0382     0.0504     1.9966 </r>
       <r>   -12.9617     0.0235     1.9984 </r>
       <r>   -12.8851     0.0110     1.9993 </r>
       <r>   -12.8086     0.0000     2.0000 </r>
       <r>   -12.7321     0.0000     2.0000 </r>
       <r>   -12.6556     0.0000     2.0000 </r>
       <r>   -12.5791     0.0000     2.0000 </r>
       <r>   -12.5026     0.0000     2.0000 </r>
       <r>   -12.4261     0.0000     2.0000 </r>
       <r>   -12.3496     0.0000     2.0000 </r>
       <r>   -12.2730     0.0000     2.0000 </r>
       <r>   -12.1965     0.0000     2.0000 </r>
       <r>   -12.1200     0.0000     2.0000 </r>
       <r>   -12.0435     0.0000     2.0000 </r>
       <r>   -11.9670     0.0000     2.0000 </r>
       <r>   -11.8905     0.0000     2.0000 </r>
       <r>   -11.8140     0.0000     2.0000 </r>
       <r>   -11.7375     0.0000     2.0000 </r>
       <r>   -11.6609     0.0000     2.0000 </r>
       <r>   -11.5844     0.0000     2.0000 </r>
       <r>   -11.5079     0.0000     2.0000 </r>
       <r>   -11.4314     0.0000     2.0000 </r>
       <r>   -11.3549     0.0000     2.0000 </r>
       <r>   -11.2784     0.0000     2.0000 </r>
       <r>   -11.2019     0.0000     2.0000 </r>
       <r>   -11.1253     0.0000     2.0000 </r>
       <r>   -11.0488     0.0000     2.0000 </r>
       <r>   -10.9723     0.0000     2.0000 </r>
       <r>   -10.8958     0.0000     2.0000 </r>
       <r>   -10.8193     0.0000     2.0000 </r>
       <r>   -10.7428     0.0000     2.0000 </r>
       <r>   -10.6663     0.0000     2.0000 </r>
       <r>   -10.5898     0.0000     2.0000 </r>
       <r>   -10.5132     0.0000     2.0000 </r>
       <r>   -10.4367     0.0000     2.0000 </r>
       <r>   -10.3602     0.0000     2.0000 </r>
       <r>   -10.2837     0.0000     2.0000 </r>
       <r>   -10.2072     0.0000     2.0000 </r>
       <r>   -10.1307     0.0000     2.0000 </r>
       <r>   -10.0542     0.0000     2.0000 </r>
       <r>    -9.9777     0.0000     2.0000 </r>
       <r>    -9.9011     0.0000     2.0000 </r>
       <r>    -9.8246     0.0000     2.0000 </r>
       <r>    -9.7481     0.0037     2.0003 </r>
       <r>    -9.6716     0.0060     2.0007 </r>
       <r>    -9.5951     0.0112     2.0016 </r>
       <r>    -9.5186     0.0240     2.0034 </r>
       <r>    -9.4421     0.0514     2.0074 </r>
       <r>    -9.3655     0.1099     2.0158 </r>
       <r>    -9.2890     0.2330     2.0336 </r>
       <r>    -9.2125     0.4867     2.0708 </r>
       <r>    -9.1360     0.9854     2.1462 </r>
       <r>    -9.0595     1.8752     2.2897 </r>
       <r>    -8.9830     3.1822     2.5332 </r>
       <r>    -8.9065     4.4823     2.8762 </r>
       <r>    -8.8300     4.9047     3.2514 </r>
       <r>    -8.7534     4.0842     3.5639 </r>
       <r>    -8.6769     2.6944     3.7701 </r>
       <r>    -8.6004     1.5146     3.8860 </r>
       <r>    -8.5239     0.7759     3.9453 </r>
       <r>    -8.4474     0.3797     3.9744 </r>
       <r>    -8.3709     0.1838     3.9885 </r>
       <r>    -8.2944     0.0937     3.9956 </r>
       <r>    -8.2178     0.0586     4.0001 </r>
       <r>    -8.1413     0.0604     4.0047 </r>
       <r>    -8.0648     0.0868     4.0126 </r>
       <r>    -7.9883     0.1783     4.0262 </r>
       <r>    -7.9118     0.3469     4.0528 </r>
       <r>    -7.8353     0.6206     4.1003 </r>
       <r>    -7.7588     0.9856     4.1757 </r>
       <r>    -7.6823     1.3646     4.2801 </r>
       <r>    -7.6057     1.6713     4.4080 </r>
       <r>    -7.5292     1.8617     4.5504 </r>
       <r>    -7.4527     1.9661     4.7008 </r>
       <r>    -7.3762     2.0530     4.8579 </r>
       <r>    -7.2997     2.1435     5.0219 </r>
       <r>    -7.2232     2.1831     5.1890 </r>
       <r>    -7.1467     2.1615     5.3543 </r>
       <r>    -7.0702     2.1451     5.5185 </r>
       <r>    -6.9936     2.1917     5.6862 </r>
       <r>    -6.9171     2.3012     5.8623 </r>
       <r>    -6.8406     2.4207     6.0475 </r>
       <r>    -6.7641     2.4988     6.2389 </r>
       <r>    -6.6876     2.5852     6.4367 </r>
       <r>    -6.6111     2.7696     6.6487 </r>
       <r>    -6.5346     3.1571     6.8903 </r>
       <r>    -6.4580     3.7714     7.1790 </r>
       <r>    -6.3815     4.4675     7.5209 </r>
       <r>    -6.3050     5.0132     7.9046 </r>
       <r>    -6.2285     5.3795     8.3163 </r>
       <r>    -6.1520     5.8209     8.7617 </r>
       <r>    -6.0755     6.5785     9.2652 </r>
       <r>    -5.9990     7.7052     9.8548 </r>
       <r>    -5.9225     9.1438    10.5545 </r>
       <r>    -5.8459    10.6565    11.3701 </r>
       <r>    -5.7694    11.8085    12.2736 </r>
       <r>    -5.6929    12.2574    13.2116 </r>
       <r>    -5.6164    12.0268    14.1319 </r>
       <r>    -5.5399    11.4527    15.0085 </r>
       <r>    -5.4634    11.0485    15.8541 </r>
       <r>    -5.3869    11.3263    16.7207 </r>
       <r>    -5.3103    12.6218    17.6868 </r>
       <r>    -5.2338    14.8919    18.8264 </r>
       <r>    -5.1573    17.6675    20.1786 </r>
       <r>    -5.0808    20.3855    21.7384 </r>
       <r>    -5.0043    22.8296    23.4859 </r>
       <r>    -4.9278    25.2225    25.4163 </r>
       <r>    -4.8513    27.7328    27.5387 </r>
       <r>    -4.7748    30.0700    29.8399 </r>
       <r>    -4.6982    31.7735    32.2714 </r>
       <r>    -4.6217    32.8871    34.7880 </r>
       <r>    -4.5452    34.2145    37.4062 </r>
       <r>    -4.4687    36.5115    40.2001 </r>
       <r>    -4.3922    39.7141    43.2395 </r>
       <r>    -4.3157    43.2440    46.5489 </r>
       <r>    -4.2392    46.4827    50.1065 </r>
       <r>    -4.1627    48.9134    53.8497 </r>
       <r>    -4.0861    50.2030    57.6920 </r>
       <r>    -4.0096    50.3838    61.5483 </r>
       <r>    -3.9331    49.7396    65.3553 </r>
       <r>    -3.8566    48.4237    69.0618 </r>
       <r>    -3.7801    46.3401    72.6085 </r>
       <r>    -3.7036    43.5496    75.9417 </r>
       <r>    -3.6271    40.5909    79.0490 </r>
       <r>    -3.5505    38.2235    81.9752 </r>
       <r>    -3.4740    37.2423    84.8265 </r>
       <r>    -3.3975    38.2918    87.7584 </r>
       <r>    -3.3210    41.2144    90.9141 </r>
       <r>    -3.2445    44.6337    94.3314 </r>
       <r>    -3.1680    46.9896    97.9286 </r>
       <r>    -3.0915    47.9171   101.5963 </r>
       <r>    -3.0150    48.1242   105.2808 </r>
       <r>    -2.9384    48.3531   108.9821 </r>
       <r>    -2.8619    48.7297   112.7122 </r>
       <r>    -2.7854    48.9356   116.4577 </r>
       <r>    -2.7089    48.8627   120.1976 </r>
       <r>    -2.6324    48.8194   123.9340 </r>
       <r>    -2.5559    49.1632   127.6967 </r>
       <r>    -2.4794    50.1765   131.5378 </r>
       <r>    -2.4029    51.9594   135.5159 </r>
       <r>    -2.3263    54.3837   139.6787 </r>
       <r>    -2.2498    57.3121   144.0657 </r>
       <r>    -2.1733    60.5170   148.6975 </r>
       <r>    -2.0968    63.3701   153.5482 </r>
       <r>    -2.0203    65.4665   158.5593 </r>
       <r>    -1.9438    67.3503   163.7144 </r>
       <r>    -1.8673    69.8670   169.0617 </r>
       <r>    -1.7907    72.8696   174.6393 </r>
       <r>    -1.7142    75.4755   180.4160 </r>
       <r>    -1.6377    77.2799   186.3307 </r>
       <r>    -1.5612    78.3536   192.3280 </r>
       <r>    -1.4847    78.5153   198.3375 </r>
       <r>    -1.4082    77.2336   204.2491 </r>
       <r>    -1.3317    73.9599   209.9106 </r>
       <r>    -1.2552    68.8457   215.1810 </r>
       <r>    -1.1786    62.9378   219.9988 </r>
       <r>    -1.1021    57.4222   224.3946 </r>
       <r>    -1.0256    52.9514   228.4488 </r>
       <r>    -0.9491    49.8370   232.2656 </r>
       <r>    -0.8726    48.6747   235.9924 </r>
       <r>    -0.7961    50.0221   239.8232 </r>
       <r>    -0.7196    53.5011   243.9198 </r>
       <r>    -0.6430    57.2745   248.3051 </r>
       <r>    -0.5665    59.0842   252.8294 </r>
       <r>    -0.4900    58.1699   257.2828 </r>
       <r>    -0.4135    55.7963   261.5545 </r>
       <r>    -0.3370    53.6389   265.6606 </r>
       <r>    -0.2605    52.3881   269.6711 </r>
       <r>    -0.1840    52.0160   273.6528 </r>
       <r>    -0.1075    52.4106   277.6646 </r>
       <r>    -0.0309    53.7135   281.7757 </r>
       <r>     0.0456    55.9641   286.0595 </r>
       <r>     0.1221    58.6194   290.5470 </r>
       <r>     0.1986    60.8813   295.2083 </r>
       <r>     0.2751    62.1759   299.9681 </r>
       <r>     0.3516    62.0654   304.7189 </r>
       <r>     0.4281    60.3565   309.3390 </r>
       <r>     0.5046    57.5556   313.7447 </r>
       <r>     0.5812    54.8738   317.9452 </r>
       <r>     0.6577    53.2812   322.0239 </r>
       <r>     0.7342    52.8856   326.0722 </r>
       <r>     0.8107    53.3206   330.1539 </r>
       <r>     0.8872    54.4796   334.3245 </r>
       <r>     0.9637    56.7340   338.6679 </r>
       <r>     1.0402    60.3128   343.2851 </r>
       <r>     1.1168    64.5733   348.2284 </r>
       <r>     1.1933    68.3389   353.4601 </r>
       <r>     1.2698    70.5491   358.8602 </r>
       <r>     1.3463    70.4241   364.2504 </r>
       <r>     1.4228    67.6161   369.4257 </r>
       <r>     1.4993    62.4134   374.2031 </r>
       <r>     1.5758    55.7273   378.4689 </r>
       <r>     1.6523    48.4136   382.1755 </r>
       <r>     1.7289    40.8127   385.3002 </r>
       <r>     1.8054    33.4109   387.8583 </r>
       <r>     1.8819    27.0946   389.9340 </r>
       <r>     1.9584    22.3506   391.6469 </r>
       <r>     2.0349    19.0292   393.1056 </r>
       <r>     2.1114    16.6828   394.3851 </r>
       <r>     2.1879    14.8755   395.5262 </r>
       <r>     2.2644    13.4274   396.5566 </r>
       <r>     2.3410    12.4628   397.5123 </r>
       <r>     2.4175    12.0463   398.4359 </r>
       <r>     2.4940    11.9488   399.3522 </r>
       <r>     2.5705    11.8640   400.2612 </r>
       <r>     2.6470    11.6792   401.1556 </r>
       <r>     2.7235    11.5456   402.0399 </r>
       <r>     2.8000    11.7055   402.9360 </r>
       <r>     2.8766    12.2198   403.8717 </r>
       <r>     2.9531    12.7690   404.8494 </r>
       <r>     3.0296    13.0102   405.8454 </r>
       <r>     3.1061    13.0156   406.8416 </r>
       <r>     3.1826    13.0318   407.8391 </r>
       <r>     3.2591    13.0776   408.8401 </r>
       <r>     3.3356    12.8780   409.8262 </r>
       <r>     3.4121    12.2240   410.7618 </r>
       <r>     3.4887    11.3286   411.6291 </r>
       <r>     3.5652    10.6739   412.4462 </r>
       <r>     3.6417    10.6054   413.2579 </r>
       <r>     3.7182    11.1441   414.1114 </r>
       <r>     3.7947    11.9118   415.0234 </r>
       <r>     3.8712    12.3237   415.9667 </r>
       <r>     3.9477    12.1202   416.8945 </r>
       <r>     4.0243    11.6068   417.7831 </r>
       <r>     4.1008    11.2969   418.6480 </r>
       <r>     4.1773    11.3308   419.5157 </r>
       <r>     4.2538    11.3989   420.3882 </r>
       <r>     4.3303    11.2267   421.2475 </r>
       <r>     4.4068    10.8896   422.0810 </r>
       <r>     4.4833    10.7369   422.9028 </r>
       <r>     4.5598    11.0280   423.7470 </r>
       <r>     4.6364    11.5784   424.6336 </r>
       <r>     4.7129    12.0204   425.5538 </r>
       <r>     4.7894    12.1814   426.4864 </r>
       <r>     4.8659    12.0383   427.4077 </r>
       <r>     4.9424    11.6886   428.3024 </r>
       <r>     5.0189    11.3244   429.1696 </r>
       <r>     5.0954    11.0468   430.0150 </r>
       <r>     5.1719    10.8459   430.8455 </r>
       <r>     5.2485    10.8076   431.6726 </r>
       <r>     5.3250    11.0319   432.5169 </r>
       <r>     5.4015    11.4168   433.3911 </r>
       <r>     5.4780    11.6884   434.2858 </r>
       <r>     5.5545    11.7452   435.1849 </r>
       <r>     5.6310    11.6665   436.0781 </r>
       <r>     5.7075    11.4651   436.9558 </r>
       <r>     5.7841    11.1482   437.8092 </r>
       <r>     5.8606    10.6895   438.6275 </r>
       <r>     5.9371    10.0921   439.4000 </r>
       <r>     6.0136     9.4936   440.1269 </r>
       <r>     6.0901     9.0614   440.8205 </r>
       <r>     6.1666     8.9187   441.5034 </r>
       <r>     6.2431     9.1123   442.2012 </r>
       <r>     6.3196     9.5076   442.9290 </r>
       <r>     6.3962     9.8490   443.6830 </r>
       <r>     6.4727    10.0213   444.4503 </r>
       <r>     6.5492    10.0462   445.2194 </r>
       <r>     6.6257     9.9742   445.9831 </r>
       <r>     6.7022     9.8119   446.7342 </r>
       <r>     6.7787     9.4711   447.4593 </r>
       <r>     6.8552     8.7880   448.1319 </r>
       <r>     6.9318     7.6187   448.7152 </r>
       <r>     7.0083     6.0390   449.1775 </r>
       <r>     7.0848     4.3343   449.5096 </r>
       <r>     7.1613     2.8250   449.7262 </r>
       <r>     7.2378     1.6906   449.8558 </r>
       <r>     7.3143     0.9350   449.9278 </r>
       <r>     7.3908     0.4829   449.9651 </r>
       <r>     7.4673     0.2364   449.9836 </r>
       <r>     7.5439     0.1103   449.9925 </r>
       <r>     7.6204     0.0496   449.9967 </r>
       <r>     7.6969     0.0201   449.9987 </r>
       <r>     7.7734     0.0074   449.9995 </r>
       <r>     7.8499     0.0020   449.9999 </r>
       <r>     7.9264     0.0008   449.9999 </r>
       <r>     8.0029     0.0000   450.0000 </r>
       <r>     8.0794     0.0000   450.0000 </r>
       <r>     8.1560     0.0000   450.0000 </r>
       <r>     8.2325     0.0000   450.0000 </r>
      </set>
     </set>
    </array>
   </total>
  </dos>
 </calculation>
 <structure name="finalpos" >
  <crystal>
   <varray name="basis" >
    <v>       8.42164176       0.00000000       0.00000000 </v>
    <v>       4.21082088       7.29335571       0.00000000 </v>
    <v>       0.00000000       0.00000000      21.87624171 </v>
   </varray>
   <i name="volume">   1343.68315334 </i>
   <varray name="rec_basis" >
    <v>       0.11874169      -0.06855555       0.00000000 </v>
    <v>       0.00000000       0.13711110       0.00000000 </v>
    <v>       0.00000000       0.00000000       0.04571169 </v>
   </varray>
  </crystal>
  <varray name="positions" >
   <v>       0.00000000       0.00000000       0.34283768 </v>
   <v>       0.33333333       0.00000000       0.34283768 </v>
   <v>       0.66666667       0.00000000       0.34283768 </v>
   <v>       0.00000000       0.33333333       0.34283768 </v>
   <v>       0.33333333       0.33333333       0.34283768 </v>
   <v>       0.66666667       0.33333333       0.34283768 </v>
   <v>       0.00000000       0.66666667       0.34283768 </v>
   <v>       0.33333333       0.66666667       0.34283768 </v>
   <v>       0.66666667       0.66666667       0.34283768 </v>
   <v>       0.11111111       0.11111111       0.44761256 </v>
   <v>       0.44444444       0.11111111       0.44761256 </v>
   <v>       0.77777778       0.11111111       0.44761256 </v>
   <v>       0.11111111       0.44444444       0.44761256 </v>
   <v>       0.44444444       0.44444444       0.44761256 </v>
   <v>       0.77777778       0.44444444       0.44761256 </v>
   <v>       0.11111111       0.77777778       0.44761256 </v>
   <v>       0.44444444       0.77777778       0.44761256 </v>
   <v>       0.77777778       0.77777778       0.44761256 </v>
   <v>       0.88820547       0.22445954       0.55069151 </v>
   <v>       0.22300058       0.22368898       0.55243660 </v>
   <v>       0.55413284       0.22351347       0.55246309 </v>
   <v>       0.88845494       0.55825915       0.55088862 </v>
   <v>       0.22322365       0.55443862       0.55361985 </v>
   <v>       0.55412996       0.55813005       0.55089261 </v>
   <v>       0.88602044       0.89277274       0.55179515 </v>
   <v>       0.22204129       0.89281562       0.55181993 </v>
   <v>       0.55448833       0.89190382       0.55192433 </v>
   <v>       0.99710327       0.00655955       0.65657390 </v>
   <v>       0.32708936       0.00099583       0.66136048 </v>
   <v>       0.67293263       0.00075883       0.66136971 </v>
   <v>       0.99439822       0.34044797       0.65546069 </v>
   <v>       0.31975499       0.36159996       0.66267053 </v>
   <v>       0.66619260       0.34065839       0.65539671 </v>
   <v>       0.99317481       0.67754274       0.65673724 </v>
   <v>       0.33056111       0.67760331       0.65672030 </v>
   <v>       0.66700731       0.66749242       0.65596318 </v>
   <v>       0.37651796       0.24841292       0.75608303 </v>
   <v>       0.44478329       0.11145449       0.71041659 </v>
   <v>       0.47088025       0.28042251       0.78019430 </v>
   <v>       0.25004709       0.28100466       0.78023262 </v>
  </varray>
  <varray name="selective"  type="logical" >
   <v type="logical" >  F  F  F </v>
   <v type="logical" >  F  F  F </v>
   <v type="logical" >  F  F  F </v>
   <v type="logical" >  F  F  F </v>
   <v type="logical" >  F  F  F </v>
   <v type="logical" >  F  F  F </v>
   <v type="logical" >  F  F  F </v>
   <v type="logical" >  F  F  F </v>
   <v type="logical" >  F  F  F </v>
   <v type="logical" >  F  F  F </v>
   <v type="logical" >  F  F  F </v>
   <v type="logical" >  F  F  F </v>
   <v type="logical" >  F  F  F </v>
   <v type="logical" >  F  F  F </v>
   <v type="logical" >  F  F  F </v>
   <v type="logical" >  F  F  F </v>
   <v type="logical" >  F  F  F </v>
   <v type="logical" >  F  F  F </v>
   <v type="logical" >  T  T  T </v>
   <v type="logical" >  T  T  T </v>
   <v type="logical" >  T  T  T </v>
   <v type="logical" >  T  T  T </v>
   <v type="logical" >  T  T  T </v>
   <v type="logical" >  T  T  T </v>
   <v type="logical" >  T  T  T </v>
   <v type="logical" >  T  T  T </v>
   <v type="logical" >  T  T  T </v>
   <v type="logical" >  T  T  T </v>
   <v type="logical" >  T  T  T </v>
   <v type="logical" >  T  T  T </v>
   <v type="logical" >  T  T  T </v>
   <v type="logical" >  T  T  T </v>
   <v type="logical" >  T  T  T </v>
   <v type="logical" >  T  T  T </v>
   <v type="logical" >  T  T  T </v>
   <v type="logical" >  T  T  T </v>
   <v type="logical" >  T  T  T </v>
   <v type="logical" >  T  T  T </v>
   <v type="logical" >  T  T  T </v>
   <v type="logical" >  T  T  T </v>
  </varray>
  <nose>
   <v>      -3.00000000       0.00000000       0.00010000       0.00010000 </v>
  </nose>
 </structure>
</modeling>
