unknown system                          
           1
     8.421642    0.000000    0.000000
     4.210821    7.293356    0.000000
     0.000000    0.000000   21.876242
   Pt   C    H 
  36   2   2
Direct configuration=     1
   0.00000000  0.00000000  0.34283768
   0.33333333  0.00000000  0.34283768
   0.66666667  0.00000000  0.34283768
   0.00000000  0.33333333  0.34283768
   0.33333333  0.33333333  0.34283768
   0.66666667  0.33333333  0.34283768
   0.00000000  0.66666667  0.34283768
   0.33333333  0.66666667  0.34283768
   0.66666667  0.66666667  0.34283768
   0.11111111  0.11111111  0.44761256
   0.44444444  0.11111111  0.44761256
   0.77777778  0.11111111  0.44761256
   0.11111111  0.44444444  0.44761256
   0.44444444  0.44444444  0.44761256
   0.77777778  0.44444444  0.44761256
   0.11111111  0.77777778  0.44761256
   0.44444444  0.77777778  0.44761256
   0.77777778  0.77777778  0.44761256
   0.88820547  0.22445954  0.55069151
   0.22300058  0.22368898  0.55243660
   0.55413284  0.22351347  0.55246309
   0.88845494  0.55825915  0.55088862
   0.22322365  0.55443862  0.55361985
   0.55412996  0.55813005  0.55089261
   0.88602044  0.89277274  0.55179515
   0.22204129  0.89281562  0.55181993
   0.55448833  0.89190382  0.55192433
   0.99710327  0.00655955  0.65657390
   0.32708936  0.00099583  0.66136048
   0.67293263  0.00075883  0.66136971
   0.99439822  0.34044797  0.65546069
   0.31975499  0.36159996  0.66267053
   0.66619260  0.34065839  0.65539671
   0.99317481  0.67754274  0.65673724
   0.33056111  0.67760331  0.65672030
   0.66700731  0.66749242  0.65596318
   0.37651796  0.24841292  0.75608303
   0.44478329  0.11145449  0.71041659
   0.47088025  0.28042251  0.78019430
   0.25004709  0.28100466  0.78023262
