    5    5    1    1
  0.1600000E+04  0.2000000E-08  0.2000000E-08  0.2000000E-08  0.5000000E-15
  1.000000000000000E-004
  CAR 
 unknown system                          
      8      1      8
 
  0.0000000E+00  0.0000000E+00  0.0000000E+00  0.1000000E+01
    1      -16.993440   1.000000
    2       -9.397996   1.000000
    3       -9.397996   1.000000
    4       -9.397996   1.000000
    5       -0.415716   0.000000
    6        0.283254   0.000000
    7        0.286592   0.000000
    8        0.286626   0.000000
