 running on   20 total cores
 distrk:  each k-point on   20 cores,    1 groups
 distr:  one band on    5 cores,    4 groups
 using from now: INCAR     
 vasp.5.4.1 24Jun15 (build Oct 10 2016 12:42:00) complex                        
  
 POSCAR found :  2 types and       5 ions
 scaLAPACK will be used

 ----------------------------------------------------------------------------- 
|                                                                             |
|  ADVICE TO THIS USER RUNNING 'VASP/VAMP'   (HEAR YOUR MASTER'S VOICE ...):  |
|                                                                             |
|      You have a (more or less) 'small supercell' and for smaller cells      |
|      it is recommended  to use the reciprocal-space projection scheme!      |
|      The real space optimization is not  efficient for small cells and it   |
|      is also less accurate ...                                              |
|      Therefore set LREAL=.FALSE. in the  INCAR file                         |
|                                                                             |
 ----------------------------------------------------------------------------- 

 LDA part: xc-table for Pade appr. of Perdew
 POSCAR found :  2 types and       5 ions
 POSCAR, INCAR and KPOINTS ok, starting setup
 WARNING: small aliasing (wrap around) errors must be expected
 FFT: planning ...
 WAVECAR not read
 entering main loop
       N       E                     dE             d eps       ncg     rms          rms(c)
DAV:   1     0.124506754455E+02    0.12451E+02   -0.15935E+03    32   0.330E+02
DAV:   2    -0.257861537025E+02   -0.38237E+02   -0.38237E+02    24   0.106E+02
DAV:   3    -0.275506620186E+02   -0.17645E+01   -0.17645E+01    24   0.273E+01
DAV:   4    -0.275581718178E+02   -0.75098E-02   -0.75098E-02    32   0.170E+00    0.871E+00
RMM:   5    -0.246625578965E+02    0.28956E+01   -0.59073E+00    24   0.146E+01    0.429E+00
RMM:   6    -0.241770744908E+02    0.48548E+00   -0.13908E+00    24   0.672E+00    0.231E+00
RMM:   7    -0.240296459720E+02    0.14743E+00   -0.16092E-01    24   0.285E+00    0.223E-01
RMM:   8    -0.240248642145E+02    0.47818E-02   -0.10603E-02    24   0.663E-01    0.183E-01
RMM:   9    -0.240189346407E+02    0.59296E-02   -0.28181E-02    22   0.906E-01    0.310E-01
RMM:  10    -0.240181961809E+02    0.73846E-03   -0.23226E-03    24   0.313E-01    0.103E-01
RMM:  11    -0.240283154165E+02   -0.10119E-01   -0.19677E-02    17   0.861E-01    0.222E-01
RMM:  12    -0.240271174109E+02    0.11980E-02   -0.15050E-03    23   0.226E-01    0.128E-01
RMM:  13    -0.240298416494E+02   -0.27242E-02   -0.87488E-03    17   0.543E-01    0.776E-02
RMM:  14    -0.240305514502E+02   -0.70980E-03   -0.43344E-04    20   0.147E-01    0.640E-02
RMM:  15    -0.240309394803E+02   -0.38803E-03   -0.95221E-04    19   0.178E-01    0.107E-02
RMM:  16    -0.240310813887E+02   -0.14191E-03   -0.81541E-05    21   0.613E-02    0.193E-02
RMM:  17    -0.240311751906E+02   -0.93802E-04   -0.38865E-06    18   0.164E-02    0.179E-02
RMM:  18    -0.240312244979E+02   -0.49307E-04   -0.13974E-04    20   0.664E-02    0.810E-03
RMM:  19    -0.240312351637E+02   -0.10666E-04   -0.19873E-06    20   0.111E-02    0.428E-03
RMM:  20    -0.240312540247E+02   -0.18861E-04   -0.17558E-05    22   0.241E-02    0.412E-03
RMM:  21    -0.240312542801E+02   -0.25541E-06   -0.16095E-06    20   0.849E-03
   1 F= -.24031254E+02 E0= -.24031254E+02  d E =-.174115E-09
