   8   8   0   0
  0.1000000E+04  0.2000000E-08  0.2000000E-08  0.2000000E-08  0.5000000E-15
  1.000000000000000E-004
  CAR 
 unknown system                          
      1.22546994    -19.48956769  301     -5.61049248      1.00000000
    -19.490  0.0000E+00  0.0000E+00
    -19.421  0.0000E+00  0.0000E+00
    -19.351  0.5231E-02  0.3612E-03
    -19.282  0.5202E-02  0.7204E-03
    -19.213  0.1037E-01  0.1436E-02
    -19.144  0.2066E-01  0.2863E-02
    -19.075  0.4113E-01  0.5703E-02
    -19.006  0.8169E-01  0.1134E-01
    -18.937  0.1616E+00  0.2250E-01
    -18.868  0.3170E+00  0.4439E-01
    -18.799  0.6117E+00  0.8663E-01
    -18.730  0.1145E+01  0.1657E+00
    -18.661  0.2022E+01  0.3053E+00
    -18.592  0.3235E+01  0.5287E+00
    -18.523  0.4436E+01  0.8350E+00
    -18.454  0.4951E+01  0.1177E+01
    -18.385  0.4401E+01  0.1481E+01
    -18.316  0.3189E+01  0.1701E+01
    -18.247  0.1984E+01  0.1838E+01
    -18.178  0.1120E+01  0.1915E+01
    -18.109  0.5979E+00  0.1957E+01
    -18.040  0.3095E+00  0.1978E+01
    -17.970  0.1577E+00  0.1989E+01
    -17.901  0.7973E-01  0.1994E+01
    -17.832  0.4014E-01  0.1997E+01
    -17.763  0.2016E-01  0.1999E+01
    -17.694  0.1012E-01  0.1999E+01
    -17.625  0.0000E+00  0.2000E+01
    -17.556  0.0000E+00  0.2000E+01
    -17.487  0.0000E+00  0.2000E+01
    -17.418  0.0000E+00  0.2000E+01
    -17.349  0.0000E+00  0.2000E+01
    -17.280  0.0000E+00  0.2000E+01
    -17.211  0.0000E+00  0.2000E+01
    -17.142  0.0000E+00  0.2000E+01
    -17.073  0.0000E+00  0.2000E+01
    -17.004  0.0000E+00  0.2000E+01
    -16.935  0.0000E+00  0.2000E+01
    -16.866  0.0000E+00  0.2000E+01
    -16.797  0.0000E+00  0.2000E+01
    -16.728  0.0000E+00  0.2000E+01
    -16.659  0.0000E+00  0.2000E+01
    -16.589  0.0000E+00  0.2000E+01
    -16.520  0.0000E+00  0.2000E+01
    -16.451  0.0000E+00  0.2000E+01
    -16.382  0.0000E+00  0.2000E+01
    -16.313  0.0000E+00  0.2000E+01
    -16.244  0.0000E+00  0.2000E+01
    -16.175  0.0000E+00  0.2000E+01
    -16.106  0.0000E+00  0.2000E+01
    -16.037  0.0000E+00  0.2000E+01
    -15.968  0.0000E+00  0.2000E+01
    -15.899  0.0000E+00  0.2000E+01
    -15.830  0.5586E-02  0.2000E+01
    -15.761  0.5554E-02  0.2001E+01
    -15.692  0.1107E-01  0.2002E+01
    -15.623  0.2206E-01  0.2003E+01
    -15.554  0.4391E-01  0.2006E+01
    -15.485  0.8718E-01  0.2012E+01
    -15.416  0.1723E+00  0.2024E+01
    -15.347  0.3377E+00  0.2047E+01
    -15.278  0.6503E+00  0.2092E+01
    -15.208  0.1212E+01  0.2176E+01
    -15.139  0.2125E+01  0.2323E+01
    -15.070  0.3359E+01  0.2555E+01
    -15.001  0.4526E+01  0.2867E+01
    -14.932  0.4944E+01  0.3208E+01
    -14.863  0.4303E+01  0.3506E+01
    -14.794  0.3066E+01  0.3717E+01
    -14.725  0.1886E+01  0.3848E+01
    -14.656  0.1057E+01  0.3921E+01
    -14.587  0.5622E+00  0.3959E+01
    -14.518  0.2905E+00  0.3979E+01
    -14.449  0.1479E+00  0.3990E+01
    -14.380  0.7471E-01  0.3995E+01
    -14.311  0.3760E-01  0.3997E+01
    -14.242  0.1889E-01  0.3999E+01
    -14.173  0.0000E+00  0.4000E+01
    -14.104  0.0000E+00  0.4000E+01
    -14.035  0.0000E+00  0.4000E+01
    -13.966  0.0000E+00  0.4000E+01
    -13.897  0.0000E+00  0.4000E+01
    -13.827  0.0000E+00  0.4000E+01
    -13.758  0.0000E+00  0.4000E+01
    -13.689  0.0000E+00  0.4000E+01
    -13.620  0.0000E+00  0.4000E+01
    -13.551  0.0000E+00  0.4000E+01
    -13.482  0.0000E+00  0.4000E+01
    -13.413  0.0000E+00  0.4000E+01
    -13.344  0.0000E+00  0.4000E+01
    -13.275  0.0000E+00  0.4000E+01
    -13.206  0.0000E+00  0.4000E+01
    -13.137  0.0000E+00  0.4000E+01
    -13.068  0.0000E+00  0.4000E+01
    -12.999  0.0000E+00  0.4000E+01
    -12.930  0.0000E+00  0.4000E+01
    -12.861  0.0000E+00  0.4000E+01
    -12.792  0.0000E+00  0.4000E+01
    -12.723  0.0000E+00  0.4000E+01
    -12.654  0.0000E+00  0.4000E+01
    -12.585  0.0000E+00  0.4000E+01
    -12.516  0.0000E+00  0.4000E+01
    -12.446  0.0000E+00  0.4000E+01
    -12.377  0.0000E+00  0.4000E+01
    -12.308  0.0000E+00  0.4000E+01
    -12.239  0.0000E+00  0.4000E+01
    -12.170  0.0000E+00  0.4000E+01
    -12.101  0.0000E+00  0.4000E+01
    -12.032  0.0000E+00  0.4000E+01
    -11.963  0.0000E+00  0.4000E+01
    -11.894  0.0000E+00  0.4000E+01
    -11.825  0.0000E+00  0.4000E+01
    -11.756  0.0000E+00  0.4000E+01
    -11.687  0.0000E+00  0.4000E+01
    -11.618  0.0000E+00  0.4000E+01
    -11.549  0.0000E+00  0.4000E+01
    -11.480  0.0000E+00  0.4000E+01
    -11.411  0.0000E+00  0.4000E+01
    -11.342  0.0000E+00  0.4000E+01
    -11.273  0.1660E-01  0.4001E+01
    -11.204  0.1650E-01  0.4002E+01
    -11.135  0.3289E-01  0.4005E+01
    -11.065  0.6550E-01  0.4009E+01
    -10.996  0.1302E+00  0.4018E+01
    -10.927  0.2580E+00  0.4036E+01
    -10.858  0.5078E+00  0.4071E+01
    -10.789  0.9865E+00  0.4139E+01
    -10.720  0.1869E+01  0.4268E+01
    -10.651  0.3378E+01  0.4501E+01
    -10.582  0.5617E+01  0.4889E+01
    -10.513  0.8158E+01  0.5453E+01
    -10.444  0.9790E+01  0.6129E+01
    -10.375  0.9381E+01  0.6776E+01
    -10.306  0.7238E+01  0.7276E+01
    -10.237  0.4706E+01  0.7601E+01
    -10.168  0.2729E+01  0.7790E+01
    -10.099  0.1479E+01  0.7892E+01
    -10.030  0.7717E+00  0.7945E+01
     -9.961  0.3949E+00  0.7972E+01
     -9.892  0.2000E+00  0.7986E+01
     -9.823  0.1008E+00  0.7993E+01
     -9.754  0.5066E-01  0.7996E+01
     -9.684  0.3355E-01  0.7999E+01
     -9.615  0.8070E-02  0.8001E+01
     -9.546  0.1608E-01  0.8002E+01
     -9.477  0.3203E-01  0.8004E+01
     -9.408  0.6368E-01  0.8009E+01
     -9.339  0.1262E+00  0.8018E+01
     -9.270  0.2484E+00  0.8035E+01
     -9.201  0.4829E+00  0.8068E+01
     -9.132  0.9160E+00  0.8131E+01
     -9.063  0.1659E+01  0.8246E+01
     -8.994  0.2768E+01  0.8437E+01
     -8.925  0.4054E+01  0.8717E+01
     -8.856  0.4896E+01  0.9055E+01
     -8.787  0.4739E+01  0.9382E+01
     -8.718  0.3710E+01  0.9638E+01
     -8.649  0.2491E+01  0.9810E+01
     -8.580  0.1588E+01  0.9920E+01
     -8.511  0.1145E+01  0.9999E+01
     -8.442  0.1157E+01  0.1008E+02
     -8.372  0.1665E+01  0.1019E+02
     -8.303  0.2805E+01  0.1039E+02
     -8.234  0.4719E+01  0.1071E+02
     -8.165  0.7221E+01  0.1121E+02
     -8.096  0.9369E+01  0.1186E+02
     -8.027  0.9802E+01  0.1254E+02
     -7.958  0.8197E+01  0.1310E+02
     -7.889  0.5660E+01  0.1349E+02
     -7.820  0.3410E+01  0.1373E+02
     -7.751  0.1889E+01  0.1386E+02
     -7.682  0.9974E+00  0.1393E+02
     -7.613  0.5135E+00  0.1396E+02
     -7.544  0.2610E+00  0.1398E+02
     -7.475  0.1317E+00  0.1399E+02
     -7.406  0.6626E-01  0.1400E+02
     -7.337  0.3328E-01  0.1400E+02
     -7.268  0.0000E+00  0.1400E+02
     -7.199  0.0000E+00  0.1400E+02
     -7.130  0.0000E+00  0.1400E+02
     -7.061  0.0000E+00  0.1400E+02
     -6.991  0.0000E+00  0.1400E+02
     -6.922  0.0000E+00  0.1400E+02
     -6.853  0.0000E+00  0.1400E+02
     -6.784  0.0000E+00  0.1400E+02
     -6.715  0.0000E+00  0.1400E+02
     -6.646  0.0000E+00  0.1400E+02
     -6.577  0.0000E+00  0.1400E+02
     -6.508  0.0000E+00  0.1400E+02
     -6.439  0.0000E+00  0.1400E+02
     -6.370  0.0000E+00  0.1400E+02
     -6.301  0.0000E+00  0.1400E+02
     -6.232  0.0000E+00  0.1400E+02
     -6.163  0.0000E+00  0.1400E+02
     -6.094  0.0000E+00  0.1400E+02
     -6.025  0.0000E+00  0.1400E+02
     -5.956  0.0000E+00  0.1400E+02
     -5.887  0.0000E+00  0.1400E+02
     -5.818  0.0000E+00  0.1400E+02
     -5.749  0.0000E+00  0.1400E+02
     -5.680  0.0000E+00  0.1400E+02
     -5.610  0.0000E+00  0.1400E+02
     -5.541  0.0000E+00  0.1400E+02
     -5.472  0.0000E+00  0.1400E+02
     -5.403  0.0000E+00  0.1400E+02
     -5.334  0.0000E+00  0.1400E+02
     -5.265  0.0000E+00  0.1400E+02
     -5.196  0.0000E+00  0.1400E+02
     -5.127  0.0000E+00  0.1400E+02
     -5.058  0.0000E+00  0.1400E+02
     -4.989  0.0000E+00  0.1400E+02
     -4.920  0.0000E+00  0.1400E+02
     -4.851  0.0000E+00  0.1400E+02
     -4.782  0.0000E+00  0.1400E+02
     -4.713  0.0000E+00  0.1400E+02
     -4.644  0.0000E+00  0.1400E+02
     -4.575  0.0000E+00  0.1400E+02
     -4.506  0.0000E+00  0.1400E+02
     -4.437  0.0000E+00  0.1400E+02
     -4.368  0.0000E+00  0.1400E+02
     -4.299  0.0000E+00  0.1400E+02
     -4.229  0.0000E+00  0.1400E+02
     -4.160  0.0000E+00  0.1400E+02
     -4.091  0.0000E+00  0.1400E+02
     -4.022  0.0000E+00  0.1400E+02
     -3.953  0.0000E+00  0.1400E+02
     -3.884  0.0000E+00  0.1400E+02
     -3.815  0.0000E+00  0.1400E+02
     -3.746  0.0000E+00  0.1400E+02
     -3.677  0.0000E+00  0.1400E+02
     -3.608  0.0000E+00  0.1400E+02
     -3.539  0.0000E+00  0.1400E+02
     -3.470  0.0000E+00  0.1400E+02
     -3.401  0.0000E+00  0.1400E+02
     -3.332  0.0000E+00  0.1400E+02
     -3.263  0.0000E+00  0.1400E+02
     -3.194  0.0000E+00  0.1400E+02
     -3.125  0.0000E+00  0.1400E+02
     -3.056  0.0000E+00  0.1400E+02
     -2.987  0.0000E+00  0.1400E+02
     -2.918  0.0000E+00  0.1400E+02
     -2.848  0.0000E+00  0.1400E+02
     -2.779  0.0000E+00  0.1400E+02
     -2.710  0.0000E+00  0.1400E+02
     -2.641  0.0000E+00  0.1400E+02
     -2.572  0.0000E+00  0.1400E+02
     -2.503  0.0000E+00  0.1400E+02
     -2.434  0.0000E+00  0.1400E+02
     -2.365  0.0000E+00  0.1400E+02
     -2.296  0.0000E+00  0.1400E+02
     -2.227  0.0000E+00  0.1400E+02
     -2.158  0.0000E+00  0.1400E+02
     -2.089  0.0000E+00  0.1400E+02
     -2.020  0.0000E+00  0.1400E+02
     -1.951  0.0000E+00  0.1400E+02
     -1.882  0.0000E+00  0.1400E+02
     -1.813  0.0000E+00  0.1400E+02
     -1.744  0.0000E+00  0.1400E+02
     -1.675  0.0000E+00  0.1400E+02
     -1.606  0.0000E+00  0.1400E+02
     -1.537  0.0000E+00  0.1400E+02
     -1.467  0.0000E+00  0.1400E+02
     -1.398  0.0000E+00  0.1400E+02
     -1.329  0.0000E+00  0.1400E+02
     -1.260  0.8238E-02  0.1400E+02
     -1.191  0.8190E-02  0.1400E+02
     -1.122  0.1632E-01  0.1400E+02
     -1.053  0.3251E-01  0.1400E+02
     -0.984  0.6462E-01  0.1401E+02
     -0.915  0.1280E+00  0.1402E+02
     -0.846  0.2520E+00  0.1404E+02
     -0.777  0.5014E+00  0.1407E+02
     -0.708  0.9399E+00  0.1413E+02
     -0.639  0.1712E+01  0.1425E+02
     -0.570  0.2851E+01  0.1445E+02
     -0.501  0.4179E+01  0.1474E+02
     -0.432  0.5114E+01  0.1509E+02
     -0.363  0.5139E+01  0.1545E+02
     -0.294  0.4497E+01  0.1576E+02
     -0.225  0.4037E+01  0.1604E+02
     -0.156  0.4509E+01  0.1635E+02
     -0.086  0.6326E+01  0.1678E+02
     -0.017  0.9495E+01  0.1744E+02
      0.052  0.1330E+02  0.1836E+02
      0.121  0.1633E+02  0.1949E+02
      0.190  0.1734E+02  0.2068E+02
      0.259  0.1592E+02  0.2178E+02
      0.328  0.1255E+02  0.2265E+02
      0.397  0.8512E+01  0.2324E+02
      0.466  0.5125E+01  0.2359E+02
      0.535  0.2846E+01  0.2379E+02
      0.604  0.1506E+01  0.2389E+02
      0.673  0.7766E+00  0.2395E+02
      0.742  0.3949E+00  0.2397E+02
      0.811  0.1994E+00  0.2399E+02
      0.880  0.9221E-01  0.2399E+02
      0.949  0.4118E-01  0.2400E+02
      1.018  0.2067E-01  0.2400E+02
      1.087  0.0000E+00  0.2400E+02
      1.156  0.0000E+00  0.2400E+02
      1.225  0.0000E+00  0.2400E+02
