 vasp.5.4.1 24Jun15 (build Oct 10 2016 12:42:00) complex                        
  
 executed on           IFC91_ompi date 2018.07.05  10:34:10
 running on   20 total cores
 distrk:  each k-point on   20 cores,    1 groups
 distr:  one band on NCORES_PER_BAND=   5 cores,    4 groups


--------------------------------------------------------------------------------------------------------


 INCAR:
 POTCAR:    PAW_PBE C 08Apr2002                   
 POTCAR:    PAW_PBE H 15Jun2001                   
 POTCAR:    PAW_PBE C 08Apr2002                   
   VRHFIN =C: s2p2                                                              
   LEXCH  = PE                                                                  
   EATOM  =   147.1560 eV,   10.8157 Ry                                         
                                                                                
   TITEL  = PAW_PBE C 08Apr2002                                                 
   LULTRA =        F    use ultrasoft PP ?                                      
   IUNSCR =        1    unscreen: 0-lin 1-nonlin 2-no                           
   RPACOR =    1.200    partial core radius                                     
   POMASS =   12.011; ZVAL   =    4.000    mass and valenz                      
   RCORE  =    1.500    outmost cutoff radius                                   
   RWIGS  =    1.630; RWIGS  =    0.863    wigner-seitz radius (au A)           
   ENMAX  =  400.000; ENMIN  =  300.000 eV                                      
   ICORE  =        2    local potential                                         
   LCOR   =        T    correct aug charges                                     
   LPAW   =        T    paw PP                                                  
   EAUG   =  644.873                                                            
   DEXC   =    0.000                                                            
   RMAX   =    1.529    core radius for proj-oper                               
   RAUG   =    1.300    factor for augmentation sphere                          
   RDEP   =    1.501    radius for radial grids                                 
   RDEPT  =    1.300    core radius for aug-charge                              
                                                                                
   Atomic configuration                                                         
    4 entries                                                                   
     n  l   j            E        occ.                                          
     1  0  0.50      -273.3789   2.0000                                         
     2  0  0.50       -13.7508   2.0000                                         
     2  1  0.50        -5.2854   2.0000                                         
     3  2  1.50        -5.4423   0.0000                                         
   Description                                                                  
     l       E           TYP  RCUT    TYP  RCUT                                 
     0    -13.7508458     23  1.200                                             
     0     -8.2022199     23  1.200                                             
     1     -5.2854383     23  1.500                                             
     1     34.0145650     23  1.500                                             
     2     -5.4423304      7  1.500                                             
  local pseudopotential read in
  partial core-charges read in
  partial kinetic energy density read in
  atomic valenz-charges read in
  non local Contribution for L=           0  read in
    real space projection operators read in
  non local Contribution for L=           0  read in
    real space projection operators read in
  non local Contribution for L=           1  read in
    real space projection operators read in
  non local Contribution for L=           1  read in
    real space projection operators read in
    PAW grid and wavefunctions read in
 
   number of l-projection  operators is LMAX  =           4
   number of lm-projection operators is LMMAX =           8
 
 POTCAR:    PAW_PBE H 15Jun2001                   
   VRHFIN =H: ultrasoft test                                                    
   LEXCH  = PE                                                                  
   EATOM  =    12.4884 eV,    0.9179 Ry                                         
                                                                                
   TITEL  = PAW_PBE H 15Jun2001                                                 
   LULTRA =        F    use ultrasoft PP ?                                      
   IUNSCR =        0    unscreen: 0-lin 1-nonlin 2-no                           
   RPACOR =    0.000    partial core radius                                     
   POMASS =    1.000; ZVAL   =    1.000    mass and valenz                      
   RCORE  =    1.100    outmost cutoff radius                                   
   RWIGS  =    0.700; RWIGS  =    0.370    wigner-seitz radius (au A)           
   ENMAX  =  250.000; ENMIN  =  200.000 eV                                      
   RCLOC  =    0.701    cutoff for local pot                                    
   LCOR   =        T    correct aug charges                                     
   LPAW   =        T    paw PP                                                  
   EAUG   =  400.000                                                            
   RMAX   =    1.123    core radius for proj-oper                               
   RAUG   =    1.200    factor for augmentation sphere                          
   RDEP   =    1.112    radius for radial grids                                 
   RDEPT  =    0.926    core radius for aug-charge                              
                                                                                
   Atomic configuration                                                         
    2 entries                                                                   
     n  l   j            E        occ.                                          
     1  0  0.50        -6.4927   1.0000                                         
     2  1  0.50        -3.4015   0.0000                                         
   Description                                                                  
     l       E           TYP  RCUT    TYP  RCUT                                 
     0     -6.4927494     23  1.100                                             
     0      6.8029130     23  1.100                                             
     1     -4.0817478     23  1.100                                             
  local pseudopotential read in
  atomic valenz-charges read in
  non local Contribution for L=           0  read in
    real space projection operators read in
  non local Contribution for L=           0  read in
    real space projection operators read in
  non local Contribution for L=           1  read in
    real space projection operators read in
    PAW grid and wavefunctions read in
 
   number of l-projection  operators is LMAX  =           3
   number of lm-projection operators is LMMAX =           5
 

 ----------------------------------------------------------------------------- 
|                                                                             |
|  ADVICE TO THIS USER RUNNING 'VASP/VAMP'   (HEAR YOUR MASTER'S VOICE ...):  |
|                                                                             |
|      You have a (more or less) 'small supercell' and for smaller cells      |
|      it is recommended  to use the reciprocal-space projection scheme!      |
|      The real space optimization is not  efficient for small cells and it   |
|      is also less accurate ...                                              |
|      Therefore set LREAL=.FALSE. in the  INCAR file                         |
|                                                                             |
 ----------------------------------------------------------------------------- 

 Optimization of the real space projectors (new method)

 maximal supplied QI-value         = 25.13
 optimisation between [QCUT,QGAM] = [ 10.05, 20.36] = [ 28.30,116.06] Ry 
 Optimized for a Real-space Cutoff    1.30 Angstroem

   l    n(q)    QCUT    max X(q) W(low)/X(q) W(high)/X(q)  e(spline) 
   0      8    10.053   115.676    0.49E-03    0.72E-03    0.18E-06
   0      8    10.053    87.132    0.49E-03    0.71E-03    0.18E-06
   1      7    10.053     4.429    0.32E-03    0.31E-03    0.18E-06
   1      7    10.053     2.733    0.23E-03    0.19E-03    0.20E-06
 Optimization of the real space projectors (new method)

 maximal supplied QI-value         = 34.20
 optimisation between [QCUT,QGAM] = [  9.92, 20.18] = [ 27.55,114.04] Ry 
 Optimized for a Real-space Cutoff    1.26 Angstroem

   l    n(q)    QCUT    max X(q) W(low)/X(q) W(high)/X(q)  e(spline) 
   0      8     9.919    19.460    0.50E-03    0.23E-03    0.29E-06
   0      8     9.919    12.209    0.48E-03    0.23E-03    0.28E-06
   1      7     9.919     4.655    0.17E-03    0.75E-03    0.30E-06
  PAW_PBE C 08Apr2002                   :
 energy of atom  1       EATOM= -147.1560
 kinetic energy error for atom=    0.0288 (will be added to EATOM!!)
  PAW_PBE H 15Jun2001                   :
 energy of atom  2       EATOM=  -12.4884
 kinetic energy error for atom=    0.0098 (will be added to EATOM!!)
 
 
 POSCAR:  C  H                                   
  positions in cartesian coordinates
  No initial velocities read in
 exchange correlation table for  LEXCH =        8
   RHO(1)=    0.500       N(1)  =     2000
   RHO(2)=  100.500       N(2)  =     4000

 VTST: version 3.1, (03/28/14)

 CHAIN: initializing optimizer
 
 OPT: Using VASP Dynamics algorithm
 CHAIN: Read ICHAIN            0
 
 POSCAR:  C  H                                   
  positions in cartesian coordinates
  No initial velocities read in
 


--------------------------------------------------------------------------------------------------------


 ion  position               nearest neighbor table
   1  0.500  0.500  0.538-   3 1.10   4 1.10   5 1.10   2 1.53
   2  0.500  0.500  0.462-   6 1.10   7 1.10   8 1.10   1 1.53
   3  0.500  0.551  0.558-   1 1.10
   4  0.456  0.474  0.558-   1 1.10
   5  0.544  0.474  0.558-   1 1.10
   6  0.500  0.449  0.442-   2 1.10
   7  0.456  0.526  0.442-   2 1.10
   8  0.544  0.526  0.442-   2 1.10
 
  LATTYP: Found a simple cubic cell.
 ALAT       =    20.0000000000
  
  Lattice vectors:
  
 A1 = (  20.0000000000,   0.0000000000,   0.0000000000)
 A2 = (   0.0000000000,  20.0000000000,   0.0000000000)
 A3 = (   0.0000000000,   0.0000000000,  20.0000000000)


Analysis of symmetry for initial positions (statically):
=====================================================================
 Subroutine PRICEL returns:
 Original cell was already a primitive cell.
 

 Routine SETGRP: Setting up the symmetry group for a 
 simple cubic supercell.


 Subroutine GETGRP returns: Found  4 space group operations
 (whereof  4 operations were pure point group operations)
 out of a pool of 48 trial point group operations.


The static configuration has the point symmetry C_2h.


Analysis of symmetry for dynamics (positions and initial velocities):
=====================================================================
 Subroutine PRICEL returns:
 Original cell was already a primitive cell.
 

 Routine SETGRP: Setting up the symmetry group for a 
 simple cubic supercell.


 Subroutine GETGRP returns: Found  4 space group operations
 (whereof  4 operations were pure point group operations)
 out of a pool of 48 trial point group operations.


The dynamic configuration has the point symmetry C_2h.
 
 
 KPOINTS: KPOINTS created by Atomic Simulation Env

Automatic generation of k-mesh.
Space group operators:
 irot       det(A)        alpha          n_x          n_y          n_z        tau_x        tau_y        tau_z
    1     1.000000     0.000000     1.000000     0.000000     0.000000     0.000000     0.000000     0.000000
    2    -1.000000     0.000000     1.000000     0.000000     0.000000     0.000000     0.000000     0.000000
    3     1.000000   180.000000     1.000000     0.000000     0.000000     0.000000     0.000000     0.000000
    4    -1.000000   180.000000     1.000000     0.000000     0.000000     0.000000     0.000000     0.000000
 
 Subroutine IBZKPT returns following result:
 ===========================================
 
 Found      1 irreducible k-points:
 
 Following reciprocal coordinates:
            Coordinates               Weight
  0.000000  0.000000  0.000000      1.000000
 
 Following cartesian coordinates:
            Coordinates               Weight
  0.000000  0.000000  0.000000      1.000000
 


--------------------------------------------------------------------------------------------------------




 Dimension of arrays:
   k-points           NKPTS =      1   k-points in BZ     NKDIM =      1   number of bands    NBANDS=     12
   number of dos      NEDOS =    301   number of ions     NIONS =      8
   non local maximal  LDIM  =      4   non local SUM 2l+1 LMDIM =      8
   total plane-waves  NPLWV = 941192
   max r-space proj   IRMAX =   1135   max aug-charges    IRDMAX=   1588
   dimension x,y,z NGX =    98 NGY =   98 NGZ =   98
   dimension x,y,z NGXF=   196 NGYF=  196 NGZF=  196
   support grid    NGXF=   196 NGYF=  196 NGZF=  196
   ions per type =               2   6
 NGX,Y,Z   is equivalent  to a cutoff of   8.15,  8.15,  8.15 a.u.
 NGXF,Y,Z  is equivalent  to a cutoff of  16.29, 16.29, 16.29 a.u.


 I would recommend the setting:
   dimension x,y,z NGX =    98 NGY =   98 NGZ =   98
 SYSTEM =  unknown system                          
 POSCAR =   C  H                                   

 Startparameter for this run:
   NWRITE =      2    write-flag & timer
   PREC   = normal    normal or accurate (medium, high low for compatibility)
   ISTART =      0    job   : 0-new  1-cont  2-samecut
   ICHARG =      2    charge: 1-file 2-atom 10-const
   ISPIN  =      1    spin polarized calculation?
   LNONCOLLINEAR =      F non collinear calculations
   LSORBIT =      F    spin-orbit coupling
   INIWAV =      1    electr: 0-lowe 1-rand  2-diag
   LASPH  =      F    aspherical Exc in radial PAW
   METAGGA=      F    non-selfconsistent MetaGGA calc.

 Electronic Relaxation 1
   ENCUT  =  400.0 eV  29.40 Ry    5.42 a.u.  32.61 32.61 32.61*2*pi/ulx,y,z
   ENINI  =  400.0     initial cutoff
   ENAUG  =  644.9 eV  augmentation charge cutoff
   NELM   =     60;   NELMIN=  4; NELMDL= -4     # of ELM steps 
   EDIFF  = 0.1E-05   stopping-criterion for ELM
   LREAL  =      T    real-space projection
   NLSPLINE    = F    spline interpolate recip. space projectors
   LCOMPAT=      F    compatible to vasp.4.4
   GGA_COMPAT  = T    GGA compatible to vasp.4.4-vasp.4.6
   LMAXPAW     = -100 max onsite density
   LMAXMIX     =    2 max onsite mixed and CHGCAR
   VOSKOWN=      0    Vosko Wilk Nusair interpolation
   ROPT   =   -0.00050  -0.00050
 Ionic relaxation
   EDIFFG = 0.1E-04   stopping-criterion for IOM
   NSW    =      0    number of steps for IOM
   NBLOCK =      1;   KBLOCK =      1    inner block; outer block 
   IBRION =     -1    ionic relax: 0-MD 1-quasi-New 2-CG
   NFREE  =      0    steps in history (QN), initial steepest desc. (CG)
   ISIF   =      2    stress and relaxation
   IWAVPR =     10    prediction:  0-non 1-charg 2-wave 3-comb
   ISYM   =      2    0-nonsym 1-usesym 2-fastsym
   LCORR  =      T    Harris-Foulkes like correction to forces

   POTIM  = 0.5000    time-step for ionic-motion
   TEIN   =    0.0    initial temperature
   TEBEG  =    0.0;   TEEND  =   0.0 temperature during run
   SMASS  =  -3.00    Nose mass-parameter (am)
   estimated Nose-frequenzy (Omega)   =  0.10E-29 period in steps =****** mass=  -0.914E-26a.u.
   SCALEE = 1.0000    scale energy and forces
   NPACO  =    256;   APACO  = 16.0  distance and # of slots for P.C.
   PSTRESS=    0.0 pullay stress

  Mass of Ions in am
   POMASS =  12.01  1.00
  Ionic Valenz
   ZVAL   =   4.00  1.00
  Atomic Wigner-Seitz radii
   RWIGS  =  -1.00 -1.00
  virtual crystal weights 
   VCA    =   1.00  1.00
   NELECT =      14.0000    total number of electrons
   NUPDOWN=      -1.0000    fix difference up-down

 DOS related values:
   EMIN   =  10.00;   EMAX   =-10.00  energy-range for DOS
   EFERMI =   0.00
   ISMEAR =    -1;   SIGMA  =   0.10  broadening in eV -4-tet -1-fermi 0-gaus

 Electronic relaxation 2 (details)
   IALGO  =     68    algorithm
   LDIAG  =      T    sub-space diagonalisation (order eigenvalues)
   LSUBROT=      F    optimize rotation matrix (better conditioning)
   TURBO    =      0    0=normal 1=particle mesh
   IRESTART =      0    0=no restart 2=restart with 2 vectors
   NREBOOT  =      0    no. of reboots
   NMIN     =      0    reboot dimension
   EREF     =   0.00    reference energy to select bands
   IMIX   =      4    mixing-type and parameters
     AMIX     =   0.40;   BMIX     =  1.00
     AMIX_MAG =   1.60;   BMIX_MAG =  1.00
     AMIN     =   0.10
     WC   =   100.;   INIMIX=   1;  MIXPRE=   1;  MAXMIX= -45

 Intra band minimization:
   WEIMIN = 0.0000     energy-eigenvalue tresh-hold
   EBREAK =  0.21E-07  absolut break condition
   DEPER  =   0.30     relativ break condition  

   TIME   =   0.40     timestep for ELM

  volume/ion in A,a.u.               =    1000.00      6748.33
  Fermi-wavevector in a.u.,A,eV,Ry     =   0.197282  0.372809  0.529541  0.038920
  Thomas-Fermi vector in A             =   0.947104
 
 Write flags
   LWAVE  =      F    write WAVECAR
   LCHARG =      F    write CHGCAR
   LVTOT  =      F    write LOCPOT, total local potential
   LVHAR  =      F    write LOCPOT, Hartree potential only
   LELF   =      F    write electronic localiz. function (ELF)
   LORBIT =      0    0 simple, 1 ext, 2 COOP (PROOUT)


 Dipole corrections
   LMONO  =      F    monopole corrections only (constant potential shift)
   LDIPOL =      F    correct potential (dipole corrections)
   IDIPOL =      0    1-x, 2-y, 3-z, 4-all directions 
   EPSILON=  1.0000000 bulk dielectric constant

 Exchange correlation treatment:
   GGA     =    PE    GGA type
   LEXCH   =     8    internal setting for exchange type
   VOSKOWN=      0    Vosko Wilk Nusair interpolation
   LHFCALC =     F    Hartree Fock is set to
   LHFONE  =     F    Hartree Fock one center treatment
   AEXX    =    0.0000 exact exchange contribution

 Linear response parameters
   LEPSILON=     F    determine dielectric tensor
   LRPA    =     F    only Hartree local field effects (RPA)
   LNABLA  =     F    use nabla operator in PAW spheres
   LVEL    =     F    velocity operator in full k-point grid
   LINTERFAST=   F  fast interpolation
   KINTER  =     0    interpolate to denser k-point grid
   CSHIFT  =0.1000    complex shift for real part using Kramers Kronig
   OMEGAMAX=  -1.0    maximum frequency
   DEG_THRESHOLD= 0.2000000E-02 threshold for treating states as degnerate
   RTIME   =    0.100 relaxation time in fs

 Orbital magnetization related:
   ORBITALMAG=     F  switch on orbital magnetization
   LCHIMAG   =     F  perturbation theory with respect to B field
   DQ        =  0.001000  dq finite difference perturbation B field



--------------------------------------------------------------------------------------------------------


 Static calculation
 charge density and potential will be updated during run
 non-spin polarized calculation
 RMM-DIIS sequential band-by-band and
  variant of blocked Davidson during initial phase
 perform sub-space diagonalisation
    before iterative eigenvector-optimisation
 modified Broyden-mixing scheme, WC =      100.0
 initial mixing is a Kerker type mixing with AMIX =  0.4000 and BMIX =      1.0000
 Hartree-type preconditioning will be used
 using additional bands            5
 real space projection scheme for non local part
 use partial core corrections
 calculate Harris-corrections to forces 
   (improved forces if not selfconsistent)
 use gradient corrections 
 use of overlap-Matrix (Vanderbilt PP)
 Fermi-smearing in eV        SIGMA  =   0.10


--------------------------------------------------------------------------------------------------------


  energy-cutoff  :      400.00
  volume of cell :     8000.00
      direct lattice vectors                 reciprocal lattice vectors
    20.000000000  0.000000000  0.000000000     0.050000000  0.000000000  0.000000000
     0.000000000 20.000000000  0.000000000     0.000000000  0.050000000  0.000000000
     0.000000000  0.000000000 20.000000000     0.000000000  0.000000000  0.050000000

  length of vectors
    20.000000000 20.000000000 20.000000000     0.050000000  0.050000000  0.050000000


 
 k-points in units of 2pi/SCALE and weight: KPOINTS created by Atomic Simulation Env
   0.00000000  0.00000000  0.00000000       1.000
 
 k-points in reciprocal lattice and weights: KPOINTS created by Atomic Simulation Env
   0.00000000  0.00000000  0.00000000       1.000
 
 position of ions in fractional coordinates (direct lattice) 
   0.50000000  0.49999967  0.53820460
   0.50000000  0.50000033  0.46179540
   0.50000000  0.55120308  0.55832913
   0.45565178  0.47440067  0.55832838
   0.54434822  0.47440067  0.55832838
   0.50000000  0.44879692  0.44167087
   0.45565178  0.52559933  0.44167162
   0.54434822  0.52559933  0.44167162
 
 position of ions in cartesian coordinates  (Angst):
  10.00000000  9.99999347 10.76409209
  10.00000000 10.00000653  9.23590791
  10.00000000 11.02406163 11.16658252
   9.11303559  9.48801345 11.16656768
  10.88696441  9.48801345 11.16656768
  10.00000000  8.97593837  8.83341748
   9.11303559 10.51198655  8.83343232
  10.88696441 10.51198655  8.83343232
 


--------------------------------------------------------------------------------------------------------


 k-point  1 :   0.0000 0.0000 0.0000  plane waves:  145165

 maximum and minimum number of plane-waves per node :     29037    29032

 maximum number of plane-waves:    145165
 maximum index in each direction: 
   IXMAX=   32   IYMAX=   32   IZMAX=   32
   IXMIN=  -32   IYMIN=  -32   IZMIN=  -32

 WARNING: aliasing errors must be expected set NGX to 130 to avoid them
 WARNING: aliasing errors must be expected set NGY to 130 to avoid them
 WARNING: aliasing errors must be expected set NGZ to 130 to avoid them
 aliasing errors are usually negligible using standard VASP settings
 and one can safely disregard these warnings

 real space projection operators:
  total allocation   :        357.92 KBytes
  max/ min on nodes  :         73.08         71.00


 parallel 3D FFT for wavefunctions:
    minimum data exchange during FFTs selected (reduces bandwidth)
 parallel 3D FFT for charge:
    minimum data exchange during FFTs selected (reduces bandwidth)


 total amount of memory used by VASP on root node    79880. kBytes
========================================================================

   base      :      30000. kBytes
   nonlr-proj:        234. kBytes
   fftplans  :      18862. kBytes
   grid      :      29384. kBytes
   one-center:          6. kBytes
   wavefun   :       1394. kBytes
 
     INWAV:  cpu time    0.0000: real time    0.0000
 Broyden mixing: mesh for mixing (old mesh)
   NGX = 65   NGY = 65   NGZ = 65
  (NGX  =196   NGY  =196   NGZ  =196)
  gives a total of 274625 points

 initial charge density was supplied:
 charge density of overlapping atoms calculated
 number of electron      14.0000000 magnetization 
 keeping initial charge density in first step


--------------------------------------------------------------------------------------------------------


 Maximum index for non-local projection operator          208
 Maximum index for augmentation-charges          134 (set IRDMAX)


--------------------------------------------------------------------------------------------------------


 First call to EWALD:  gamma=   0.089
 Maximum number of real-space cells 3x 3x 3
 Maximum number of reciprocal cells 3x 3x 3

 FEWALD executed in parallel
    FEWALD:  cpu time    0.0020: real time    0.0018


----------------------------------------- Iteration    1(   1)  ---------------------------------------


    POTLOK:  cpu time    0.3799: real time    0.3803
    SETDIJ:  cpu time    0.0030: real time    0.0024
     EDDAV:  cpu time    0.3889: real time    0.3902
       DOS:  cpu time    0.0010: real time    0.0001
    --------------------------------------------
      LOOP:  cpu time    0.7749: real time    0.8080

 eigenvalue-minimisations  :    40
 total energy-change (2. order) : 0.5671252E+02  (-0.2584774E+03)
 number of electron      14.0000000 magnetization 
 augmentation part       14.0000000 magnetization 

 Free energy of the ion-electron system (eV)
  ---------------------------------------------------
  alpha Z        PSCENC =         0.09745814
  Ewald energy   TEWEN  =       520.31988999
  -Hartree energ DENC   =      -739.74317128
  -exchange      EXHF   =         0.00000000
  -V(xc)+E(xc)   XCENC  =        39.84709046
  PAW double counting   =       229.84825738     -231.04033570
  entropy T*S    EENTRO =        -0.18112188
  eigenvalues    EBANDS =      -131.56178895
  atomic energy  EATOM  =       369.12624373
  Solvation  Ediel_sol  =         0.00000000
  ---------------------------------------------------
  free energy    TOTEN  =        56.71252190 eV

  energy without entropy =       56.89364377  energy(sigma->0) =       56.80308283


--------------------------------------------------------------------------------------------------------




----------------------------------------- Iteration    1(   2)  ---------------------------------------


     EDDAV:  cpu time    0.5339: real time    0.5340
       DOS:  cpu time    0.0000: real time    0.0001
    --------------------------------------------
      LOOP:  cpu time    0.5349: real time    0.5721

 eigenvalue-minimisations  :    48
 total energy-change (2. order) :-0.7998192E+02  (-0.7829972E+02)
 number of electron      14.0000000 magnetization 
 augmentation part       14.0000000 magnetization 

 Free energy of the ion-electron system (eV)
  ---------------------------------------------------
  alpha Z        PSCENC =         0.09745814
  Ewald energy   TEWEN  =       520.31988999
  -Hartree energ DENC   =      -739.74317128
  -exchange      EXHF   =         0.00000000
  -V(xc)+E(xc)   XCENC  =        39.84709046
  PAW double counting   =       229.84825738     -231.04033570
  entropy T*S    EENTRO =        -0.00000000
  eigenvalues    EBANDS =      -211.72482786
  atomic energy  EATOM  =       369.12624373
  Solvation  Ediel_sol  =         0.00000000
  ---------------------------------------------------
  free energy    TOTEN  =       -23.26939514 eV

  energy without entropy =      -23.26939514  energy(sigma->0) =      -23.26939514


--------------------------------------------------------------------------------------------------------




----------------------------------------- Iteration    1(   3)  ---------------------------------------


     EDDAV:  cpu time    0.3210: real time    0.3208
       DOS:  cpu time    0.0000: real time    0.0001
    --------------------------------------------
      LOOP:  cpu time    0.3220: real time    0.3224

 eigenvalue-minimisations  :    32
 total energy-change (2. order) :-0.2016118E+02  (-0.2015594E+02)
 number of electron      14.0000000 magnetization 
 augmentation part       14.0000000 magnetization 

 Free energy of the ion-electron system (eV)
  ---------------------------------------------------
  alpha Z        PSCENC =         0.09745814
  Ewald energy   TEWEN  =       520.31988999
  -Hartree energ DENC   =      -739.74317128
  -exchange      EXHF   =         0.00000000
  -V(xc)+E(xc)   XCENC  =        39.84709046
  PAW double counting   =       229.84825738     -231.04033570
  entropy T*S    EENTRO =        -0.00000000
  eigenvalues    EBANDS =      -231.88600393
  atomic energy  EATOM  =       369.12624373
  Solvation  Ediel_sol  =         0.00000000
  ---------------------------------------------------
  free energy    TOTEN  =       -43.43057121 eV

  energy without entropy =      -43.43057121  energy(sigma->0) =      -43.43057121


--------------------------------------------------------------------------------------------------------




----------------------------------------- Iteration    1(   4)  ---------------------------------------


     EDDAV:  cpu time    0.3210: real time    0.3213
       DOS:  cpu time    0.0000: real time    0.0001
    CHARGE:  cpu time    0.1280: real time    0.1282
    MIXING:  cpu time    0.0120: real time    0.0120
    --------------------------------------------
      LOOP:  cpu time    0.4619: real time    0.4631

 eigenvalue-minimisations  :    32
 total energy-change (2. order) :-0.2297488E+01  (-0.2297404E+01)
 number of electron      13.9999986 magnetization 
 augmentation part        0.3799609 magnetization 

 Broyden mixing:
  rms(total) = 0.10632E+01    rms(broyden)= 0.10629E+01
  rms(prec ) = 0.11865E+01
  weight for this iteration     100.00

 Free energy of the ion-electron system (eV)
  ---------------------------------------------------
  alpha Z        PSCENC =         0.09745814
  Ewald energy   TEWEN  =       520.31988999
  -Hartree energ DENC   =      -739.74317128
  -exchange      EXHF   =         0.00000000
  -V(xc)+E(xc)   XCENC  =        39.84709046
  PAW double counting   =       229.84825738     -231.04033570
  entropy T*S    EENTRO =        -0.00000000
  eigenvalues    EBANDS =      -234.18349228
  atomic energy  EATOM  =       369.12624373
  Solvation  Ediel_sol  =         0.00000000
  ---------------------------------------------------
  free energy    TOTEN  =       -45.72805956 eV

  energy without entropy =      -45.72805956  energy(sigma->0) =      -45.72805956


--------------------------------------------------------------------------------------------------------




----------------------------------------- Iteration    1(   5)  ---------------------------------------


    POTLOK:  cpu time    0.3469: real time    0.3679
    SETDIJ:  cpu time    0.0020: real time    0.0020
    EDDIAG:  cpu time    0.0580: real time    0.0571
  RMM-DIIS:  cpu time    0.3030: real time    0.3036
    ORTHCH:  cpu time    0.0030: real time    0.0033
       DOS:  cpu time    0.0000: real time    0.0001
    CHARGE:  cpu time    0.1300: real time    0.1299
    MIXING:  cpu time    0.0120: real time    0.0120
    --------------------------------------------
      LOOP:  cpu time    0.8559: real time    0.8780

 eigenvalue-minimisations  :    34
 total energy-change (2. order) : 0.4097710E+01  (-0.6457739E+00)
 number of electron      13.9999989 magnetization 
 augmentation part        0.3525596 magnetization 

 Broyden mixing:
  rms(total) = 0.55755E+00    rms(broyden)= 0.55751E+00
  rms(prec ) = 0.60996E+00
  weight for this iteration     100.00

 eigenvalues of (default mixing * dielectric matrix)
  average eigenvalue GAMMA=   1.5998
  1.5998

 Free energy of the ion-electron system (eV)
  ---------------------------------------------------
  alpha Z        PSCENC =         0.09745814
  Ewald energy   TEWEN  =       520.31988999
  -Hartree energ DENC   =      -772.51813691
  -exchange      EXHF   =         0.00000000
  -V(xc)+E(xc)   XCENC  =        41.62884256
  PAW double counting   =       449.49753118     -450.95615003
  entropy T*S    EENTRO =        -0.00000000
  eigenvalues    EBANDS =      -198.82602784
  atomic energy  EATOM  =       369.12624373
  Solvation  Ediel_sol  =         0.00000000
  ---------------------------------------------------
  free energy    TOTEN  =       -41.63034918 eV

  energy without entropy =      -41.63034918  energy(sigma->0) =      -41.63034918


--------------------------------------------------------------------------------------------------------




----------------------------------------- Iteration    1(   6)  ---------------------------------------


    POTLOK:  cpu time    0.3270: real time    0.3271
    SETDIJ:  cpu time    0.0020: real time    0.0020
    EDDIAG:  cpu time    0.1240: real time    0.1339
  RMM-DIIS:  cpu time    0.3040: real time    0.3043
    ORTHCH:  cpu time    0.0030: real time    0.0031
       DOS:  cpu time    0.0000: real time    0.0001
    CHARGE:  cpu time    0.1280: real time    0.1287
    MIXING:  cpu time    0.0130: real time    0.0123
    --------------------------------------------
      LOOP:  cpu time    0.9039: real time    0.9134

 eigenvalue-minimisations  :    34
 total energy-change (2. order) : 0.9561886E+00  (-0.3903274E+00)
 number of electron      13.9999991 magnetization 
 augmentation part        0.3294096 magnetization 

 Broyden mixing:
  rms(total) = 0.25853E+00    rms(broyden)= 0.25842E+00
  rms(prec ) = 0.27394E+00
  weight for this iteration     100.00

 eigenvalues of (default mixing * dielectric matrix)
  average eigenvalue GAMMA=   2.0170
  2.0170  2.0170

 Free energy of the ion-electron system (eV)
  ---------------------------------------------------
  alpha Z        PSCENC =         0.09745814
  Ewald energy   TEWEN  =       520.31988999
  -Hartree energ DENC   =      -799.34876441
  -exchange      EXHF   =         0.00000000
  -V(xc)+E(xc)   XCENC  =        43.32804520
  PAW double counting   =       736.91265868     -738.49458645
  entropy T*S    EENTRO =        -0.00000000
  eigenvalues    EBANDS =      -172.61510550
  atomic energy  EATOM  =       369.12624373
  Solvation  Ediel_sol  =         0.00000000
  ---------------------------------------------------
  free energy    TOTEN  =       -40.67416062 eV

  energy without entropy =      -40.67416062  energy(sigma->0) =      -40.67416062


--------------------------------------------------------------------------------------------------------




----------------------------------------- Iteration    1(   7)  ---------------------------------------


    POTLOK:  cpu time    0.3300: real time    0.3292
    SETDIJ:  cpu time    0.0020: real time    0.0021
    EDDIAG:  cpu time    0.0560: real time    0.0560
  RMM-DIIS:  cpu time    0.3060: real time    0.3132
    ORTHCH:  cpu time    0.0030: real time    0.0032
       DOS:  cpu time    0.0000: real time    0.0001
    CHARGE:  cpu time    0.1280: real time    0.1278
    MIXING:  cpu time    0.0130: real time    0.0128
    --------------------------------------------
      LOOP:  cpu time    0.8389: real time    0.8465

 eigenvalue-minimisations  :    32
 total energy-change (2. order) : 0.1627530E+00  (-0.4204007E-01)
 number of electron      13.9999991 magnetization 
 augmentation part        0.3293651 magnetization 

 Broyden mixing:
  rms(total) = 0.54959E-01    rms(broyden)= 0.54944E-01
  rms(prec ) = 0.69794E-01
  weight for this iteration     100.00

 eigenvalues of (default mixing * dielectric matrix)
  average eigenvalue GAMMA=   1.5980
  2.2158  0.9350  1.6432

 Free energy of the ion-electron system (eV)
  ---------------------------------------------------
  alpha Z        PSCENC =         0.09745814
  Ewald energy   TEWEN  =       520.31988999
  -Hartree energ DENC   =      -804.12652621
  -exchange      EXHF   =         0.00000000
  -V(xc)+E(xc)   XCENC  =        43.86411257
  PAW double counting   =       886.32761478     -887.81694873
  entropy T*S    EENTRO =        -0.00000000
  eigenvalues    EBANDS =      -168.30325194
  atomic energy  EATOM  =       369.12624373
  Solvation  Ediel_sol  =         0.00000000
  ---------------------------------------------------
  free energy    TOTEN  =       -40.51140767 eV

  energy without entropy =      -40.51140767  energy(sigma->0) =      -40.51140767


--------------------------------------------------------------------------------------------------------




----------------------------------------- Iteration    1(   8)  ---------------------------------------


    POTLOK:  cpu time    0.3270: real time    0.3267
    SETDIJ:  cpu time    0.0020: real time    0.0020
    EDDIAG:  cpu time    0.0570: real time    0.0559
  RMM-DIIS:  cpu time    0.3040: real time    0.3048
    ORTHCH:  cpu time    0.0030: real time    0.0034
       DOS:  cpu time    0.0000: real time    0.0001
    CHARGE:  cpu time    0.1270: real time    0.1274
    MIXING:  cpu time    0.0120: real time    0.0129
    --------------------------------------------
      LOOP:  cpu time    0.8349: real time    0.8652

 eigenvalue-minimisations  :    34
 total energy-change (2. order) : 0.2376332E-01  (-0.4933554E-02)
 number of electron      13.9999991 magnetization 
 augmentation part        0.3278173 magnetization 

 Broyden mixing:
  rms(total) = 0.28148E-01    rms(broyden)= 0.28144E-01
  rms(prec ) = 0.39701E-01
  weight for this iteration     100.00

 eigenvalues of (default mixing * dielectric matrix)
  average eigenvalue GAMMA=   2.0080
  2.7185  2.7185  0.9976  1.5971

 Free energy of the ion-electron system (eV)
  ---------------------------------------------------
  alpha Z        PSCENC =         0.09745814
  Ewald energy   TEWEN  =       520.31988999
  -Hartree energ DENC   =      -807.16010886
  -exchange      EXHF   =         0.00000000
  -V(xc)+E(xc)   XCENC  =        44.00090185
  PAW double counting   =       898.15933264     -899.66826023
  entropy T*S    EENTRO =        -0.00000000
  eigenvalues    EBANDS =      -165.36310161
  atomic energy  EATOM  =       369.12624373
  Solvation  Ediel_sol  =         0.00000000
  ---------------------------------------------------
  free energy    TOTEN  =       -40.48764435 eV

  energy without entropy =      -40.48764435  energy(sigma->0) =      -40.48764435


--------------------------------------------------------------------------------------------------------




----------------------------------------- Iteration    1(   9)  ---------------------------------------


    POTLOK:  cpu time    0.3679: real time    0.3685
    SETDIJ:  cpu time    0.0020: real time    0.0019
    EDDIAG:  cpu time    0.0570: real time    0.0571
  RMM-DIIS:  cpu time    0.2440: real time    0.2439
    ORTHCH:  cpu time    0.0030: real time    0.0031
       DOS:  cpu time    0.0000: real time    0.0001
    CHARGE:  cpu time    0.1280: real time    0.1282
    MIXING:  cpu time    0.0130: real time    0.0137
    --------------------------------------------
      LOOP:  cpu time    0.8179: real time    0.8508

 eigenvalue-minimisations  :    28
 total energy-change (2. order) :-0.4725018E-02  (-0.1730296E-01)
 number of electron      13.9999992 magnetization 
 augmentation part        0.3240456 magnetization 

 Broyden mixing:
  rms(total) = 0.61370E-01    rms(broyden)= 0.61357E-01
  rms(prec ) = 0.66869E-01
  weight for this iteration     100.00

 eigenvalues of (default mixing * dielectric matrix)
  average eigenvalue GAMMA=   1.6919
  2.5287  2.5287  1.1884  1.1884  1.0253

 Free energy of the ion-electron system (eV)
  ---------------------------------------------------
  alpha Z        PSCENC =         0.09745814
  Ewald energy   TEWEN  =       520.31988999
  -Hartree energ DENC   =      -812.53148325
  -exchange      EXHF   =         0.00000000
  -V(xc)+E(xc)   XCENC  =        44.12743746
  PAW double counting   =       874.88590710     -876.41611902
  entropy T*S    EENTRO =        -0.00000000
  eigenvalues    EBANDS =      -160.10170352
  atomic energy  EATOM  =       369.12624373
  Solvation  Ediel_sol  =         0.00000000
  ---------------------------------------------------
  free energy    TOTEN  =       -40.49236937 eV

  energy without entropy =      -40.49236937  energy(sigma->0) =      -40.49236937


--------------------------------------------------------------------------------------------------------




----------------------------------------- Iteration    1(  10)  ---------------------------------------


    POTLOK:  cpu time    0.3319: real time    0.3330
    SETDIJ:  cpu time    0.0190: real time    0.0186
    EDDIAG:  cpu time    0.0800: real time    0.0997
  RMM-DIIS:  cpu time    0.2880: real time    0.2884
    ORTHCH:  cpu time    0.0030: real time    0.0034
       DOS:  cpu time    0.0000: real time    0.0001
    CHARGE:  cpu time    0.1280: real time    0.1276
    MIXING:  cpu time    0.0140: real time    0.0140
    --------------------------------------------
      LOOP:  cpu time    0.8659: real time    0.8869

 eigenvalue-minimisations  :    33
 total energy-change (2. order) : 0.1386275E-01  (-0.2445703E-02)
 number of electron      13.9999992 magnetization 
 augmentation part        0.3248467 magnetization 

 Broyden mixing:
  rms(total) = 0.14469E-01    rms(broyden)= 0.14468E-01
  rms(prec ) = 0.18521E-01
  weight for this iteration     100.00

 eigenvalues of (default mixing * dielectric matrix)
  average eigenvalue GAMMA=   2.0875
  4.3712  2.6237  1.9850  0.9780  1.2837  1.2837

 Free energy of the ion-electron system (eV)
  ---------------------------------------------------
  alpha Z        PSCENC =         0.09745814
  Ewald energy   TEWEN  =       520.31988999
  -Hartree energ DENC   =      -811.81884416
  -exchange      EXHF   =         0.00000000
  -V(xc)+E(xc)   XCENC  =        44.13530745
  PAW double counting   =       889.20656966     -890.71739328
  entropy T*S    EENTRO =        -0.00000000
  eigenvalues    EBANDS =      -160.82773814
  atomic energy  EATOM  =       369.12624373
  Solvation  Ediel_sol  =         0.00000000
  ---------------------------------------------------
  free energy    TOTEN  =       -40.47850662 eV

  energy without entropy =      -40.47850662  energy(sigma->0) =      -40.47850662


--------------------------------------------------------------------------------------------------------




----------------------------------------- Iteration    1(  11)  ---------------------------------------


    POTLOK:  cpu time    0.3349: real time    0.3353
    SETDIJ:  cpu time    0.0020: real time    0.0021
    EDDIAG:  cpu time    0.0560: real time    0.0558
  RMM-DIIS:  cpu time    0.2270: real time    0.2325
    ORTHCH:  cpu time    0.0020: real time    0.0027
       DOS:  cpu time    0.0000: real time    0.0001
    CHARGE:  cpu time    0.1770: real time    0.2104
    MIXING:  cpu time    0.0150: real time    0.0147
    --------------------------------------------
      LOOP:  cpu time    0.8149: real time    0.8555

 eigenvalue-minimisations  :    26
 total energy-change (2. order) :-0.5015212E-02  (-0.1179083E-02)
 number of electron      13.9999991 magnetization 
 augmentation part        0.3255317 magnetization 

 Broyden mixing:
  rms(total) = 0.68211E-02    rms(broyden)= 0.68073E-02
  rms(prec ) = 0.87158E-02
  weight for this iteration     100.00

 eigenvalues of (default mixing * dielectric matrix)
  average eigenvalue GAMMA=   1.8529
  4.1465  2.4213  2.1208  1.2676  1.2676  0.9456  0.8008

 Free energy of the ion-electron system (eV)
  ---------------------------------------------------
  alpha Z        PSCENC =         0.09745814
  Ewald energy   TEWEN  =       520.31988999
  -Hartree energ DENC   =      -812.99192630
  -exchange      EXHF   =         0.00000000
  -V(xc)+E(xc)   XCENC  =        44.15731545
  PAW double counting   =       886.33395159     -887.83821720
  entropy T*S    EENTRO =        -0.00000000
  eigenvalues    EBANDS =      -159.68823723
  atomic energy  EATOM  =       369.12624373
  Solvation  Ediel_sol  =         0.00000000
  ---------------------------------------------------
  free energy    TOTEN  =       -40.48352183 eV

  energy without entropy =      -40.48352183  energy(sigma->0) =      -40.48352183


--------------------------------------------------------------------------------------------------------




----------------------------------------- Iteration    1(  12)  ---------------------------------------


    POTLOK:  cpu time    0.3320: real time    0.3327
    SETDIJ:  cpu time    0.0020: real time    0.0020
    EDDIAG:  cpu time    0.0560: real time    0.0560
  RMM-DIIS:  cpu time    0.2920: real time    0.2922
    ORTHCH:  cpu time    0.0030: real time    0.0033
       DOS:  cpu time    0.0000: real time    0.0001
    CHARGE:  cpu time    0.1280: real time    0.1276
    MIXING:  cpu time    0.0150: real time    0.0152
    --------------------------------------------
      LOOP:  cpu time    0.8299: real time    0.8524

 eigenvalue-minimisations  :    33
 total energy-change (2. order) :-0.1620088E-02  (-0.3689588E-04)
 number of electron      13.9999991 magnetization 
 augmentation part        0.3255231 magnetization 

 Broyden mixing:
  rms(total) = 0.52829E-02    rms(broyden)= 0.52813E-02
  rms(prec ) = 0.69247E-02
  weight for this iteration     100.00

 eigenvalues of (default mixing * dielectric matrix)
  average eigenvalue GAMMA=   2.1584
  5.3799  3.0246  2.4445  1.8873  1.3120  1.3120  0.9536  0.9536

 Free energy of the ion-electron system (eV)
  ---------------------------------------------------
  alpha Z        PSCENC =         0.09745814
  Ewald energy   TEWEN  =       520.31988999
  -Hartree energ DENC   =      -813.29205290
  -exchange      EXHF   =         0.00000000
  -V(xc)+E(xc)   XCENC  =        44.16679254
  PAW double counting   =       888.01999095     -889.52592254
  entropy T*S    EENTRO =        -0.00000000
  eigenvalues    EBANDS =      -159.39754182
  atomic energy  EATOM  =       369.12624373
  Solvation  Ediel_sol  =         0.00000000
  ---------------------------------------------------
  free energy    TOTEN  =       -40.48514192 eV

  energy without entropy =      -40.48514192  energy(sigma->0) =      -40.48514192


--------------------------------------------------------------------------------------------------------




----------------------------------------- Iteration    1(  13)  ---------------------------------------


    POTLOK:  cpu time    0.3459: real time    0.4052
    SETDIJ:  cpu time    0.0020: real time    0.0020
    EDDIAG:  cpu time    0.0570: real time    0.0564
  RMM-DIIS:  cpu time    0.2340: real time    0.2345
    ORTHCH:  cpu time    0.0030: real time    0.0032
       DOS:  cpu time    0.0000: real time    0.0001
    CHARGE:  cpu time    0.1290: real time    0.1279
    MIXING:  cpu time    0.0160: real time    0.0158
    --------------------------------------------
      LOOP:  cpu time    0.7879: real time    0.8733

 eigenvalue-minimisations  :    27
 total energy-change (2. order) :-0.7676384E-02  (-0.4688893E-03)
 number of electron      13.9999992 magnetization 
 augmentation part        0.3250606 magnetization 

 Broyden mixing:
  rms(total) = 0.61988E-02    rms(broyden)= 0.61977E-02
  rms(prec ) = 0.70741E-02
  weight for this iteration     100.00

 eigenvalues of (default mixing * dielectric matrix)
  average eigenvalue GAMMA=   2.1126
  5.9514  3.4472  2.4155  1.9794  1.2891  1.2891  0.9785  0.8314  0.8314

 Free energy of the ion-electron system (eV)
  ---------------------------------------------------
  alpha Z        PSCENC =         0.09745814
  Ewald energy   TEWEN  =       520.31988999
  -Hartree energ DENC   =      -814.07015667
  -exchange      EXHF   =         0.00000000
  -V(xc)+E(xc)   XCENC  =        44.17157899
  PAW double counting   =       887.37720833     -888.88768571
  entropy T*S    EENTRO =        -0.00000000
  eigenvalues    EBANDS =      -158.62735509
  atomic energy  EATOM  =       369.12624373
  Solvation  Ediel_sol  =         0.00000000
  ---------------------------------------------------
  free energy    TOTEN  =       -40.49281830 eV

  energy without entropy =      -40.49281830  energy(sigma->0) =      -40.49281830


--------------------------------------------------------------------------------------------------------




----------------------------------------- Iteration    1(  14)  ---------------------------------------


    POTLOK:  cpu time    0.3339: real time    0.3423
    SETDIJ:  cpu time    0.0010: real time    0.0015
    EDDIAG:  cpu time    0.0550: real time    0.0797
  RMM-DIIS:  cpu time    0.2820: real time    0.2915
    ORTHCH:  cpu time    0.0030: real time    0.0032
       DOS:  cpu time    0.0000: real time    0.0001
    CHARGE:  cpu time    0.1280: real time    0.1273
    MIXING:  cpu time    0.0170: real time    0.0167
    --------------------------------------------
      LOOP:  cpu time    0.8219: real time    0.8861

 eigenvalue-minimisations  :    33
 total energy-change (2. order) :-0.7208473E-03  (-0.5438229E-04)
 number of electron      13.9999992 magnetization 
 augmentation part        0.3251095 magnetization 

 Broyden mixing:
  rms(total) = 0.20871E-02    rms(broyden)= 0.20871E-02
  rms(prec ) = 0.26155E-02
  weight for this iteration     100.00

 eigenvalues of (default mixing * dielectric matrix)
  average eigenvalue GAMMA=   2.4539
  6.5023  5.3969  2.6368  2.6368  1.8615  1.3186  1.3186  1.0100  0.9371  0.9203

 Free energy of the ion-electron system (eV)
  ---------------------------------------------------
  alpha Z        PSCENC =         0.09745814
  Ewald energy   TEWEN  =       520.31988999
  -Hartree energ DENC   =      -813.85839747
  -exchange      EXHF   =         0.00000000
  -V(xc)+E(xc)   XCENC  =        44.16205814
  PAW double counting   =       887.76031828     -889.26849921
  entropy T*S    EENTRO =        -0.00000000
  eigenvalues    EBANDS =      -158.83261074
  atomic energy  EATOM  =       369.12624373
  Solvation  Ediel_sol  =         0.00000000
  ---------------------------------------------------
  free energy    TOTEN  =       -40.49353915 eV

  energy without entropy =      -40.49353915  energy(sigma->0) =      -40.49353915


--------------------------------------------------------------------------------------------------------




----------------------------------------- Iteration    1(  15)  ---------------------------------------


    POTLOK:  cpu time    0.3359: real time    0.3363
    SETDIJ:  cpu time    0.0020: real time    0.0018
    EDDIAG:  cpu time    0.0570: real time    0.0561
  RMM-DIIS:  cpu time    0.2220: real time    0.2226
    ORTHCH:  cpu time    0.0030: real time    0.0033
       DOS:  cpu time    0.0000: real time    0.0001
    CHARGE:  cpu time    0.2060: real time    0.2061
    MIXING:  cpu time    0.0190: real time    0.0185
    --------------------------------------------
      LOOP:  cpu time    0.8469: real time    0.8522

 eigenvalue-minimisations  :    25
 total energy-change (2. order) :-0.1813398E-02  (-0.1782462E-03)
 number of electron      13.9999991 magnetization 
 augmentation part        0.3254616 magnetization 

 Broyden mixing:
  rms(total) = 0.48330E-02    rms(broyden)= 0.48314E-02
  rms(prec ) = 0.54418E-02
  weight for this iteration     100.00

 eigenvalues of (default mixing * dielectric matrix)
  average eigenvalue GAMMA=   2.2917
  7.1573  4.8235  2.6368  2.4858  1.9137  1.3045  1.3045  0.9880  0.9343  0.8302
  0.8302

 Free energy of the ion-electron system (eV)
  ---------------------------------------------------
  alpha Z        PSCENC =         0.09745814
  Ewald energy   TEWEN  =       520.31988999
  -Hartree energ DENC   =      -813.56910287
  -exchange      EXHF   =         0.00000000
  -V(xc)+E(xc)   XCENC  =        44.14609475
  PAW double counting   =       887.48467865     -888.99013816
  entropy T*S    EENTRO =        -0.00000000
  eigenvalues    EBANDS =      -159.11047676
  atomic energy  EATOM  =       369.12624373
  Solvation  Ediel_sol  =         0.00000000
  ---------------------------------------------------
  free energy    TOTEN  =       -40.49535254 eV

  energy without entropy =      -40.49535254  energy(sigma->0) =      -40.49535254


--------------------------------------------------------------------------------------------------------




----------------------------------------- Iteration    1(  16)  ---------------------------------------


    POTLOK:  cpu time    0.3389: real time    0.3383
    SETDIJ:  cpu time    0.0020: real time    0.0020
    EDDIAG:  cpu time    0.0560: real time    0.0564
  RMM-DIIS:  cpu time    0.2870: real time    0.2867
    ORTHCH:  cpu time    0.0030: real time    0.0032
       DOS:  cpu time    0.0000: real time    0.0001
    CHARGE:  cpu time    0.1280: real time    0.1279
    MIXING:  cpu time    0.0180: real time    0.0180
    --------------------------------------------
      LOOP:  cpu time    0.8329: real time    0.8346

 eigenvalue-minimisations  :    32
 total energy-change (2. order) : 0.6083351E-04  (-0.8510615E-05)
 number of electron      13.9999991 magnetization 
 augmentation part        0.3254169 magnetization 

 Broyden mixing:
  rms(total) = 0.30735E-02    rms(broyden)= 0.30734E-02
  rms(prec ) = 0.34510E-02
  weight for this iteration     100.00

 eigenvalues of (default mixing * dielectric matrix)
  average eigenvalue GAMMA=   2.4309
  7.6710  4.6483  4.0366  2.3005  2.3005  1.3273  1.3273  1.5739  1.1792  0.9934
  0.9067  0.9067

 Free energy of the ion-electron system (eV)
  ---------------------------------------------------
  alpha Z        PSCENC =         0.09745814
  Ewald energy   TEWEN  =       520.31988999
  -Hartree energ DENC   =      -813.71411851
  -exchange      EXHF   =         0.00000000
  -V(xc)+E(xc)   XCENC  =        44.15156412
  PAW double counting   =       887.68560355     -889.19219990
  entropy T*S    EENTRO =        -0.00000000
  eigenvalues    EBANDS =      -158.96973283
  atomic energy  EATOM  =       369.12624373
  Solvation  Ediel_sol  =         0.00000000
  ---------------------------------------------------
  free energy    TOTEN  =       -40.49529171 eV

  energy without entropy =      -40.49529171  energy(sigma->0) =      -40.49529171


--------------------------------------------------------------------------------------------------------




----------------------------------------- Iteration    1(  17)  ---------------------------------------


    POTLOK:  cpu time    0.4029: real time    0.4030
    SETDIJ:  cpu time    0.0020: real time    0.0021
    EDDIAG:  cpu time    0.0820: real time    0.0823
  RMM-DIIS:  cpu time    0.2660: real time    0.2657
    ORTHCH:  cpu time    0.0030: real time    0.0034
       DOS:  cpu time    0.0010: real time    0.0001
    CHARGE:  cpu time    0.1270: real time    0.1276
    MIXING:  cpu time    0.0190: real time    0.0189
    --------------------------------------------
      LOOP:  cpu time    0.9049: real time    0.9050

 eigenvalue-minimisations  :    26
 total energy-change (2. order) :-0.2534585E-03  (-0.4377650E-04)
 number of electron      13.9999991 magnetization 
 augmentation part        0.3252090 magnetization 

 Broyden mixing:
  rms(total) = 0.93658E-03    rms(broyden)= 0.93448E-03
  rms(prec ) = 0.10323E-02
  weight for this iteration     100.00

 eigenvalues of (default mixing * dielectric matrix)
  average eigenvalue GAMMA=   2.4026
  8.2938  4.9183  4.1369  2.4599  2.3472  1.8931  1.3182  1.3182  1.0195  0.9434
  0.9434  0.8207  0.8207

 Free energy of the ion-electron system (eV)
  ---------------------------------------------------
  alpha Z        PSCENC =         0.09745814
  Ewald energy   TEWEN  =       520.31988999
  -Hartree energ DENC   =      -813.91020115
  -exchange      EXHF   =         0.00000000
  -V(xc)+E(xc)   XCENC  =        44.15820774
  PAW double counting   =       887.18357516     -888.69172840
  entropy T*S    EENTRO =        -0.00000000
  eigenvalues    EBANDS =      -158.77899037
  atomic energy  EATOM  =       369.12624373
  Solvation  Ediel_sol  =         0.00000000
  ---------------------------------------------------
  free energy    TOTEN  =       -40.49554517 eV

  energy without entropy =      -40.49554517  energy(sigma->0) =      -40.49554517


--------------------------------------------------------------------------------------------------------




----------------------------------------- Iteration    1(  18)  ---------------------------------------


    POTLOK:  cpu time    0.3350: real time    0.3348
    SETDIJ:  cpu time    0.0020: real time    0.0020
    EDDIAG:  cpu time    0.0570: real time    0.0571
  RMM-DIIS:  cpu time    0.3030: real time    0.3028
    ORTHCH:  cpu time    0.0030: real time    0.0031
       DOS:  cpu time    0.0000: real time    0.0001
    CHARGE:  cpu time    0.1280: real time    0.1280
    MIXING:  cpu time    0.1100: real time    0.1095
    --------------------------------------------
      LOOP:  cpu time    0.9389: real time    0.9398

 eigenvalue-minimisations  :    34
 total energy-change (2. order) :-0.7021807E-04  (-0.8600517E-05)
 number of electron      13.9999991 magnetization 
 augmentation part        0.3251253 magnetization 

 Broyden mixing:
  rms(total) = 0.23604E-02    rms(broyden)= 0.23600E-02
  rms(prec ) = 0.26116E-02
  weight for this iteration     100.00

 eigenvalues of (default mixing * dielectric matrix)
  average eigenvalue GAMMA=   2.4882
  8.6260  5.5879  4.3064  2.5536  2.5536  1.9699  1.3315  1.3315  1.3821  1.3821
  0.9233  0.9233  1.0107  0.9522

 Free energy of the ion-electron system (eV)
  ---------------------------------------------------
  alpha Z        PSCENC =         0.09745814
  Ewald energy   TEWEN  =       520.31988999
  -Hartree energ DENC   =      -813.95968302
  -exchange      EXHF   =         0.00000000
  -V(xc)+E(xc)   XCENC  =        44.15949036
  PAW double counting   =       887.08111000     -888.58971033
  entropy T*S    EENTRO =        -0.00000000
  eigenvalues    EBANDS =      -158.73041425
  atomic energy  EATOM  =       369.12624373
  Solvation  Ediel_sol  =         0.00000000
  ---------------------------------------------------
  free energy    TOTEN  =       -40.49561539 eV

  energy without entropy =      -40.49561539  energy(sigma->0) =      -40.49561539


--------------------------------------------------------------------------------------------------------




----------------------------------------- Iteration    1(  19)  ---------------------------------------


    POTLOK:  cpu time    0.3359: real time    0.3358
    SETDIJ:  cpu time    0.0020: real time    0.0020
    EDDIAG:  cpu time    0.0570: real time    0.0566
  RMM-DIIS:  cpu time    0.2680: real time    0.2680
    ORTHCH:  cpu time    0.0040: real time    0.0033
       DOS:  cpu time    0.0000: real time    0.0001
    CHARGE:  cpu time    0.1280: real time    0.1279
    MIXING:  cpu time    0.0200: real time    0.0203
    --------------------------------------------
      LOOP:  cpu time    0.8159: real time    0.8162

 eigenvalue-minimisations  :    31
 total energy-change (2. order) :-0.3299126E-04  (-0.5541387E-05)
 number of electron      13.9999991 magnetization 
 augmentation part        0.3251883 magnetization 

 Broyden mixing:
  rms(total) = 0.60911E-03    rms(broyden)= 0.60901E-03
  rms(prec ) = 0.68573E-03
  weight for this iteration     100.00

 eigenvalues of (default mixing * dielectric matrix)
  average eigenvalue GAMMA=   2.4848
  8.6970  6.4699  3.6243  3.6243  2.4810  1.9616  1.9616  1.3302  1.3302  1.1145
  0.9250  0.9250  0.9717  0.9717  0.8841

 Free energy of the ion-electron system (eV)
  ---------------------------------------------------
  alpha Z        PSCENC =         0.09745814
  Ewald energy   TEWEN  =       520.31988999
  -Hartree energ DENC   =      -813.88779613
  -exchange      EXHF   =         0.00000000
  -V(xc)+E(xc)   XCENC  =        44.15689954
  PAW double counting   =       887.43731468     -888.94510054
  entropy T*S    EENTRO =        -0.00000000
  eigenvalues    EBANDS =      -158.80055779
  atomic energy  EATOM  =       369.12624373
  Solvation  Ediel_sol  =         0.00000000
  ---------------------------------------------------
  free energy    TOTEN  =       -40.49564838 eV

  energy without entropy =      -40.49564838  energy(sigma->0) =      -40.49564838


--------------------------------------------------------------------------------------------------------




----------------------------------------- Iteration    1(  20)  ---------------------------------------


    POTLOK:  cpu time    0.3899: real time    0.4106
    SETDIJ:  cpu time    0.0020: real time    0.0022
    EDDIAG:  cpu time    0.0560: real time    0.0561
  RMM-DIIS:  cpu time    0.2620: real time    0.2619
    ORTHCH:  cpu time    0.0030: real time    0.0031
       DOS:  cpu time    0.0000: real time    0.0001
    CHARGE:  cpu time    0.1280: real time    0.1280
    MIXING:  cpu time    0.0210: real time    0.0211
    --------------------------------------------
      LOOP:  cpu time    0.8629: real time    0.8852

 eigenvalue-minimisations  :    30
 total energy-change (2. order) :-0.2342049E-04  (-0.6054525E-05)
 number of electron      13.9999991 magnetization 
 augmentation part        0.3252610 magnetization 

 Broyden mixing:
  rms(total) = 0.85969E-03    rms(broyden)= 0.85919E-03
  rms(prec ) = 0.94349E-03
  weight for this iteration     100.00

 eigenvalues of (default mixing * dielectric matrix)
  average eigenvalue GAMMA=   2.5854
  9.1108  6.8554  4.3689  3.7221  2.5282  2.4779  1.8454  1.3425  1.3425  1.4824
  1.4824  1.0065  0.9716  0.9716  0.9294  0.9294

 Free energy of the ion-electron system (eV)
  ---------------------------------------------------
  alpha Z        PSCENC =         0.09745814
  Ewald energy   TEWEN  =       520.31988999
  -Hartree energ DENC   =      -813.83176779
  -exchange      EXHF   =         0.00000000
  -V(xc)+E(xc)   XCENC  =        44.15490345
  PAW double counting   =       887.59704556     -889.10429731
  entropy T*S    EENTRO =        -0.00000000
  eigenvalues    EBANDS =      -158.85514756
  atomic energy  EATOM  =       369.12624373
  Solvation  Ediel_sol  =         0.00000000
  ---------------------------------------------------
  free energy    TOTEN  =       -40.49567180 eV

  energy without entropy =      -40.49567180  energy(sigma->0) =      -40.49567180


--------------------------------------------------------------------------------------------------------




----------------------------------------- Iteration    1(  21)  ---------------------------------------


    POTLOK:  cpu time    0.3389: real time    0.3398
    SETDIJ:  cpu time    0.0020: real time    0.0021
    EDDIAG:  cpu time    0.0560: real time    0.0565
  RMM-DIIS:  cpu time    0.2390: real time    0.2385
    ORTHCH:  cpu time    0.0030: real time    0.0033
       DOS:  cpu time    0.0010: real time    0.0001
    CHARGE:  cpu time    0.1270: real time    0.1273
    MIXING:  cpu time    0.0220: real time    0.0226
    --------------------------------------------
      LOOP:  cpu time    0.7919: real time    0.7921

 eigenvalue-minimisations  :    23
 total energy-change (2. order) :-0.5612781E-05  (-0.1371800E-06)
 number of electron      13.9999991 magnetization 
 augmentation part        0.3252615 magnetization 

 Broyden mixing:
  rms(total) = 0.59915E-03    rms(broyden)= 0.59912E-03
  rms(prec ) = 0.66209E-03
  weight for this iteration     100.00

 eigenvalues of (default mixing * dielectric matrix)
  average eigenvalue GAMMA=   2.4853
  9.2214  6.8192  4.6624  3.5730  2.5632  2.5632  1.8244  1.3435  1.3435  1.5132
  1.5132  0.9716  0.9716  1.0044  0.9135  0.9135  0.5356

 Free energy of the ion-electron system (eV)
  ---------------------------------------------------
  alpha Z        PSCENC =         0.09745814
  Ewald energy   TEWEN  =       520.31988999
  -Hartree energ DENC   =      -813.84699440
  -exchange      EXHF   =         0.00000000
  -V(xc)+E(xc)   XCENC  =        44.15533526
  PAW double counting   =       887.51025552     -889.01768645
  entropy T*S    EENTRO =        -0.00000000
  eigenvalues    EBANDS =      -158.84017919
  atomic energy  EATOM  =       369.12624373
  Solvation  Ediel_sol  =         0.00000000
  ---------------------------------------------------
  free energy    TOTEN  =       -40.49567741 eV

  energy without entropy =      -40.49567741  energy(sigma->0) =      -40.49567741


--------------------------------------------------------------------------------------------------------




----------------------------------------- Iteration    1(  22)  ---------------------------------------


    POTLOK:  cpu time    0.3439: real time    0.3442
    SETDIJ:  cpu time    0.0030: real time    0.0022
    EDDIAG:  cpu time    0.0560: real time    0.0560
  RMM-DIIS:  cpu time    0.2610: real time    0.2617
    ORTHCH:  cpu time    0.0040: real time    0.0032
       DOS:  cpu time    0.0000: real time    0.0001
    CHARGE:  cpu time    0.1270: real time    0.1273
    MIXING:  cpu time    0.0230: real time    0.0234
    --------------------------------------------
      LOOP:  cpu time    0.8199: real time    0.8201

 eigenvalue-minimisations  :    30
 total energy-change (2. order) :-0.5083141E-05  (-0.1439942E-05)
 number of electron      13.9999991 magnetization 
 augmentation part        0.3252267 magnetization 

 Broyden mixing:
  rms(total) = 0.17694E-03    rms(broyden)= 0.17661E-03
  rms(prec ) = 0.19389E-03
  weight for this iteration     100.00

 eigenvalues of (default mixing * dielectric matrix)
  average eigenvalue GAMMA=   2.4459
  9.3783  6.8864  4.8049  3.6464  2.4941  2.4941  1.8470  1.3487  1.3487  1.5132
  1.5132  1.1260  1.1260  0.9970  0.9970  0.9062  0.9062  0.6928

 Free energy of the ion-electron system (eV)
  ---------------------------------------------------
  alpha Z        PSCENC =         0.09745814
  Ewald energy   TEWEN  =       520.31988999
  -Hartree energ DENC   =      -813.87440767
  -exchange      EXHF   =         0.00000000
  -V(xc)+E(xc)   XCENC  =        44.15616341
  PAW double counting   =       887.40165957     -888.90938587
  entropy T*S    EENTRO =        -0.00000000
  eigenvalues    EBANDS =      -158.81330380
  atomic energy  EATOM  =       369.12624373
  Solvation  Ediel_sol  =         0.00000000
  ---------------------------------------------------
  free energy    TOTEN  =       -40.49568250 eV

  energy without entropy =      -40.49568250  energy(sigma->0) =      -40.49568250


--------------------------------------------------------------------------------------------------------




----------------------------------------- Iteration    1(  23)  ---------------------------------------


    POTLOK:  cpu time    0.3869: real time    0.3875
    SETDIJ:  cpu time    0.0020: real time    0.0018
    EDDIAG:  cpu time    0.0560: real time    0.0563
  RMM-DIIS:  cpu time    0.2300: real time    0.2297
    ORTHCH:  cpu time    0.0030: real time    0.0033
       DOS:  cpu time    0.0000: real time    0.0001
    --------------------------------------------
      LOOP:  cpu time    0.6789: real time    0.6806

 eigenvalue-minimisations  :    25
 total energy-change (2. order) :-0.7089008E-06  (-0.1776440E-07)
 number of electron      13.9999991 magnetization 
 augmentation part        0.3252267 magnetization 

 Free energy of the ion-electron system (eV)
  ---------------------------------------------------
  alpha Z        PSCENC =         0.09745814
  Ewald energy   TEWEN  =       520.31988999
  -Hartree energ DENC   =      -813.86980239
  -exchange      EXHF   =         0.00000000
  -V(xc)+E(xc)   XCENC  =        44.15604024
  PAW double counting   =       887.41463421     -888.92230093
  entropy T*S    EENTRO =        -0.00000000
  eigenvalues    EBANDS =      -158.81784620
  atomic energy  EATOM  =       369.12624373
  Solvation  Ediel_sol  =         0.00000000
  ---------------------------------------------------
  free energy    TOTEN  =       -40.49568320 eV

  energy without entropy =      -40.49568320  energy(sigma->0) =      -40.49568320


--------------------------------------------------------------------------------------------------------




 average (electrostatic) potential at core
  the test charge radii are     0.6991  0.5201
  (the norm of the test charge is              1.0000)
       1 -58.1745       2 -58.1745       3 -41.4460       4 -41.4448       5 -41.4448
       6 -41.4460       7 -41.4448       8 -41.4448
 
 
 
 E-fermi :  -5.6105     XC(G=0):  -0.1664     alpha+bet : -0.0458


 k-point     1 :       0.0000    0.0000    0.0000
  band No.  band energies     occupation 
      1     -18.4896      2.00000
      2     -14.9746      2.00000
      3     -10.4572      2.00000
      4     -10.4566      2.00000
      5      -8.8665      2.00000
      6      -8.0826      2.00000
      7      -8.0820      2.00000
      8      -0.4439      0.00000
      9       0.0630      0.00000
     10       0.0862      0.00000
     11       0.2248      0.00000
     12       0.2255      0.00000


--------------------------------------------------------------------------------------------------------


 soft charge-density along one line, spin component           1
         0         1         2         3         4         5         6         7         8         9
 total charge-density along one line
 
 pseudopotential strength for first ion, spin component:           1
 10.214  13.583  -0.000  -0.000  -0.000  -0.000   0.000   0.000
 13.583  18.062  -0.000  -0.000   0.000  -0.000   0.000   0.000
 -0.000  -0.000  -4.345  -0.000  -0.000   8.504   0.000   0.000
 -0.000  -0.000  -0.000  -4.345  -0.000   0.000   8.504   0.000
 -0.000   0.000  -0.000  -0.000  -4.345   0.000   0.000   8.504
 -0.000  -0.000   8.504   0.000   0.000 -18.778  -0.000  -0.000
  0.000   0.000   0.000   8.504   0.000  -0.000 -18.781  -0.000
  0.000   0.000   0.000   0.000   8.504  -0.000  -0.000 -18.778
 total augmentation occupancy for first ion, spin component:           1
  7.530  -3.228   0.001   0.033   0.000   0.000  -0.002   0.000
 -3.228   1.398  -0.000  -0.006   0.000  -0.000   0.004   0.000
  0.001  -0.000   1.628   0.000   0.000   0.136  -0.000   0.000
  0.033  -0.006   0.000   1.585   0.000  -0.000   0.140   0.000
  0.000   0.000   0.000   0.000   1.628   0.000   0.000   0.136
  0.000  -0.000   0.136  -0.000   0.000   0.011  -0.000   0.000
 -0.002   0.004  -0.000   0.140   0.000  -0.000   0.013   0.000
  0.000   0.000   0.000   0.000   0.136   0.000   0.000   0.011


------------------------ aborting loop because EDIFF is reached ----------------------------------------


    CHARGE:  cpu time    0.1270: real time    0.1271
    FORLOC:  cpu time    0.0270: real time    0.0275
    FORNL :  cpu time    0.0890: real time    0.0883
    STRESS:  cpu time    0.2890: real time    0.2900
    FORCOR:  cpu time    0.4079: real time    0.4075
    FORHAR:  cpu time    0.1110: real time    0.1110
    MIXING:  cpu time    0.0250: real time    0.0250
    OFIELD:  cpu time    0.0000: real time    0.0000

  FORCE on cell =-STRESS in cart. coord.  units (eV):
  Direction    XX          YY          ZZ          XY          YZ          ZX
  --------------------------------------------------------------------------------------
  Alpha Z     0.09746     0.09746     0.09746
  Ewald     116.70783   116.67268   286.93929     0.00000     0.00899     0.00000
  Hartree   227.72271   227.71023   358.42866    -0.00000     0.00118    -0.00000
  E(xc)     -48.46841   -48.46861   -48.39438    -0.00000     0.00008     0.00000
  Local    -452.77622  -452.73407  -759.67019    -0.00000    -0.00796    -0.00000
  n-local   -26.15776   -26.15964   -24.88527     0.00000     0.00021    -0.00000
  augment    -0.01139    -0.01349     0.04669    -0.00000    -0.00004     0.00000
  Kinetic   182.27125   182.28073   186.77050    -0.00000    -0.00194     0.00000
  Fock        0.00000     0.00000     0.00000     0.00000     0.00000     0.00000
  -------------------------------------------------------------------------------------
  Total      -0.61453    -0.61470    -0.66725     0.00000     0.00054     0.00000
  in kB      -0.12307    -0.12311    -0.13363     0.00000     0.00011     0.00000
  external pressure =       -0.13 kB  Pullay stress =        0.00 kB


 VOLUME and BASIS-vectors are now :
 -----------------------------------------------------------------------------
  energy-cutoff  :      400.00
  volume of cell :     8000.00
      direct lattice vectors                 reciprocal lattice vectors
    20.000000000  0.000000000  0.000000000     0.050000000  0.000000000  0.000000000
     0.000000000 20.000000000  0.000000000     0.000000000  0.050000000  0.000000000
     0.000000000  0.000000000 20.000000000     0.000000000  0.000000000  0.050000000

  length of vectors
    20.000000000 20.000000000 20.000000000     0.050000000  0.050000000  0.050000000


 FORCES acting on ions
    electron-ion (+dipol)            ewald-force                    non-local-force                 convergence-correction
 -----------------------------------------------------------------------------------------------
   0.194E-12 0.941E-02 -.781E+02   0.799E-14 -.105E-01 0.781E+02   -.414E-24 0.138E-02 -.305E-01   -.240E-13 -.302E-05 -.146E-02
   0.194E-12 -.941E-02 0.781E+02   0.000E+00 0.105E-01 -.781E+02   0.827E-24 -.138E-02 0.305E-01   -.384E-13 0.302E-05 0.146E-02
   0.490E-13 -.546E+02 -.311E+02   0.999E-15 0.596E+02 0.331E+02   0.000E+00 -.507E+01 -.203E+01   -.472E-14 -.403E-03 -.295E-03
   0.473E+02 0.273E+02 -.311E+02   -.516E+02 -.298E+02 0.331E+02   0.439E+01 0.253E+01 -.203E+01   0.350E-03 0.201E-03 -.295E-03
   -.473E+02 0.273E+02 -.311E+02   0.516E+02 -.298E+02 0.331E+02   -.439E+01 0.253E+01 -.203E+01   -.350E-03 0.201E-03 -.295E-03
   0.488E-13 0.546E+02 0.311E+02   0.888E-15 -.596E+02 -.331E+02   0.000E+00 0.507E+01 0.203E+01   -.862E-14 0.403E-03 0.295E-03
   0.473E+02 -.273E+02 0.311E+02   -.516E+02 0.298E+02 -.331E+02   0.439E+01 -.253E+01 0.203E+01   0.350E-03 -.201E-03 0.295E-03
   -.473E+02 -.273E+02 0.311E+02   0.516E+02 0.298E+02 -.331E+02   -.439E+01 -.253E+01 0.203E+01   -.350E-03 -.201E-03 0.295E-03
 -----------------------------------------------------------------------------------------------
   -.355E-13 0.153E-11 0.174E-11   -.711E-14 0.000E+00 -.711E-14   0.000E+00 -.444E-15 0.000E+00   -.103E-12 -.133E-13 -.864E-13
 
 
 POSITION                                       TOTAL-FORCE (eV/Angst)
 -----------------------------------------------------------------------------------
     10.00000      9.99999     10.76409         0.000000      0.000249     -0.018199
     10.00000     10.00001      9.23591         0.000000     -0.000249      0.018199
     10.00000     11.02406     11.16658         0.000000      0.000514      0.000984
      9.11304      9.48801     11.16657        -0.000108     -0.000154      0.000841
     10.88696      9.48801     11.16657         0.000108     -0.000154      0.000841
     10.00000      8.97594      8.83342         0.000000     -0.000514     -0.000984
      9.11304     10.51199      8.83343        -0.000108      0.000154     -0.000841
     10.88696     10.51199      8.83343         0.000108      0.000154     -0.000841
 -----------------------------------------------------------------------------------
    total drift:                               -0.000000      0.000000      0.000000


--------------------------------------------------------------------------------------------------------



  FREE ENERGIE OF THE ION-ELECTRON SYSTEM (eV)
  ---------------------------------------------------
  free  energy   TOTEN  =       -40.49568320 eV

  energy  without entropy=      -40.49568320  energy(sigma->0) =      -40.49568320
 


--------------------------------------------------------------------------------------------------------


    POTLOK:  cpu time    0.3449: real time    0.3445


--------------------------------------------------------------------------------------------------------


 stress matrix after NEB project (eV)
     -0.61453      0.00000      0.00000
      0.00000     -0.61470      0.00054
      0.00000      0.00054     -0.66725
  FORCES: max atom, RMS     0.018201    0.009138
  FORCE total and by dimension    0.025845    0.018199
  Stress total and by dimension    1.095773    0.667247
     LOOP+:  cpu time   19.3951: real time   19.8533
    4ORBIT:  cpu time    0.0000: real time    0.0000

 total amount of memory used by VASP on root node    79880. kBytes
========================================================================

   base      :      30000. kBytes
   nonlr-proj:        234. kBytes
   fftplans  :      18862. kBytes
   grid      :      29384. kBytes
   one-center:          6. kBytes
   wavefun   :       1394. kBytes
 
  
  
 General timing and accounting informations for this job:
 ========================================================
  
                  Total CPU time used (sec):       21.016
                            User time (sec):       19.684
                          System time (sec):        1.332
                         Elapsed time (sec):       21.811
  
                   Maximum memory used (kb):      150052.
                   Average memory used (kb):           0.
  
                          Minor page faults:       138603
                          Major page faults:            9
                 Voluntary context switches:         1014
