   41   41    1    1
  0.3277276E+02  0.8421642E-09  0.8421642E-09  0.2187624E-08  0.5000000E-15
  1.000000000000000E-004
  CAR 
 unknown system                          
    371     54    225
 
  0.8333333E-01  0.8333333E-01  0.0000000E+00  0.1851852E-01
    1      -13.050674   1.000000
    2       -9.309453   1.000000
    3       -7.706547   1.000000
    4       -6.382029   1.000000
    5       -5.505280   1.000000
    6       -5.426734   1.000000
    7       -5.391911   1.000000
    8       -5.354049   1.000000
    9       -5.265222   1.000000
   10       -5.242168   1.000000
   11       -5.222489   1.000000
   12       -5.165059   1.000000
   13       -5.064131   1.000000
   14       -5.063041   1.000000
   15       -4.863236   1.000000
   16       -4.705312   1.000000
   17       -4.678784   1.000000
   18       -4.668882   1.000000
   19       -4.610430   1.000000
   20       -4.588312   1.000000
   21       -4.568408   1.000000
   22       -4.213741   1.000000
   23       -4.201475   1.000000
   24       -4.189736   1.000000
   25       -4.131387   1.000000
   26       -4.112860   1.000000
   27       -4.074403   1.000000
   28       -4.030009   1.000000
   29       -3.993520   1.000000
   30       -3.951163   1.000000
   31       -3.869334   1.000000
   32       -3.866933   1.000000
   33       -3.831685   1.000000
   34       -3.810188   1.000000
   35       -3.797039   1.000000
   36       -3.775746   1.000000
   37       -3.763017   1.000000
   38       -3.723970   1.000000
   39       -3.720697   1.000000
   40       -3.705723   1.000000
   41       -3.689327   1.000000
   42       -3.659797   1.000000
   43       -3.543616   1.000000
   44       -3.527371   1.000000
   45       -3.275892   1.000000
   46       -3.126164   1.000000
   47       -3.121215   1.000000
   48       -3.101193   1.000000
   49       -3.093955   1.000000
   50       -3.077000   1.000000
   51       -3.063672   1.000000
   52       -2.998792   1.000000
   53       -2.975725   1.000000
   54       -2.935636   1.000000
   55       -2.842927   1.000000
   56       -2.828885   1.000000
   57       -2.767904   1.000000
   58       -2.751683   1.000000
   59       -2.735879   1.000000
   60       -2.480292   1.000000
   61       -2.471134   1.000000
   62       -2.301983   1.000000
   63       -2.295382   1.000000
   64       -2.254455   1.000000
   65       -2.218503   1.000000
   66       -2.214881   1.000000
   67       -2.199648   1.000000
   68       -2.157731   1.000000
   69       -2.152069   1.000000
   70       -2.129570   1.000000
   71       -2.109125   1.000000
   72       -2.085207   1.000000
   73       -2.069128   1.000000
   74       -2.026227   1.000000
   75       -2.006426   1.000000
   76       -1.990857   1.000000
   77       -1.977264   1.000000
   78       -1.949674   1.000000
   79       -1.924990   1.000000
   80       -1.875322   1.000000
   81       -1.870113   1.000000
   82       -1.849515   1.000000
   83       -1.835509   1.000000
   84       -1.816582   1.000000
   85       -1.797995   1.000000
   86       -1.755914   1.000000
   87       -1.734533   1.000000
   88       -1.711549   1.000000
   89       -1.702369   1.000000
   90       -1.584808   1.000000
   91       -1.568522   1.000000
   92       -1.558464   1.000000
   93       -1.523204   1.000000
   94       -1.518558   1.000000
   95       -1.491236   1.000000
   96       -1.484954   1.000000
   97       -1.468601   1.000000
   98       -1.442627   1.000000
   99       -1.416100   1.000000
  100       -1.393715   1.000000
  101       -1.390962   1.000000
  102       -1.347166   1.000000
  103       -1.303584   1.000000
  104       -1.255265   1.000000
  105       -1.234454   1.000000
  106       -1.215174   1.000000
  107       -1.207320   1.000000
  108       -1.206104   1.000000
  109       -1.197637   1.000000
  110       -1.144931   1.000000
  111       -1.131767   1.000000
  112       -1.062494   1.000000
  113       -1.039517   1.000000
  114       -1.020444   1.000000
  115       -0.852534   1.000000
  116       -0.810653   1.000000
  117       -0.789091   1.000000
  118       -0.703007   1.000000
  119       -0.699468   1.000000
  120       -0.609194   1.000000
  121       -0.607975   1.000000
  122       -0.592949   1.000000
  123       -0.558216   1.000000
  124       -0.554894   1.000000
  125       -0.518232   1.000000
  126       -0.461295   1.000000
  127       -0.447664   1.000000
  128       -0.378932   1.000000
  129       -0.290335   1.000000
  130       -0.278215   1.000000
  131       -0.199940   1.000000
  132       -0.163314   1.000000
  133       -0.109007   1.000000
  134       -0.099418   1.000000
  135       -0.059799   1.000000
  136       -0.022909   1.000000
  137       -0.019071   1.000000
  138       -0.014612   1.000000
  139        0.032751   0.999999
  140        0.045466   0.999999
  141        0.076060   0.999999
  142        0.149199   0.999998
  143        0.155418   0.999998
  144        0.191507   0.999997
  145        0.215553   0.999997
  146        0.275817   0.999994
  147        0.302260   0.999992
  148        0.310049   0.999992
  149        0.362396   0.999986
  150        0.413063   0.999976
  151        0.415617   0.999976
  152        0.443119   0.999968
  153        0.489112   0.999949
  154        0.498509   0.999944
  155        0.538409   0.999917
  156        0.549802   0.999907
  157        0.587296   0.999865
  158        0.626143   0.999801
  159        0.651101   0.999744
  160        0.657693   0.999727
  161        0.685018   0.999641
  162        0.690582   0.999620
  163        0.725729   0.999461
  164        0.741286   0.999370
  165        0.762873   0.999218
  166        0.782949   0.999044
  167        0.805245   0.998806
  168        0.858400   0.997970
  169        0.860477   0.997928
  170        0.879057   0.997506
  171        0.887431   0.997288
  172        0.911174   0.996564
  173        0.917909   0.996326
  174        0.948100   0.995037
  175        0.955289   0.994669
  176        0.960430   0.994389
  177        1.003169   0.991423
  178        1.042148   0.987387
  179        1.048630   0.986553
  180        1.104892   0.976635
  181        1.112516   0.974830
  182        1.130830   0.969924
  183        1.140429   0.966993
  184        1.182237   0.950706
  185        1.186847   0.948500
  186        1.217654   0.931197
  187        1.221855   0.928457
  188        1.257150   0.901169
  189        1.261362   0.897353
  190        1.278332   0.880635
  191        1.291080   0.866571
  192        1.296191   0.860549
  193        1.310568   0.842387
  194        1.404027   0.677326
  195        1.489305   0.472211
  196        1.502157   0.440336
  197        1.521346   0.393725
  198        1.549047   0.329888
  199        1.557983   0.310441
  200        1.588102   0.249881
  201        1.964589   0.007660
  202        2.046672   0.003385
  203        2.112376   0.001758
  204        2.241783   0.000482
  205        2.362034   0.000145
  206        2.419009   0.000082
  207        2.564233   0.000019
  208        3.473124   0.000000
  209        3.505129   0.000000
  210        4.337439   0.000000
  211        4.501458   0.000000
  212        4.660754   0.000000
  213        4.871115   0.000000
  214        5.165097   0.000000
  215        5.185128   0.000000
  216        5.808351   0.000000
  217        5.863965   0.000000
  218        6.056949   0.000000
  219        6.228307   0.000000
  220        6.365013   0.000000
  221        6.549033   0.000000
  222        6.631197   0.000000
  223        6.727611   0.000000
  224        6.769456   0.000000
  225        6.953474   0.000000
 
  0.0000000E+00  0.8333333E-01  0.0000000E+00  0.1851852E-01
    1      -13.050674   1.000000
    2       -9.309447   1.000000
    3       -7.706532   1.000000
    4       -6.382012   1.000000
    5       -5.501555   1.000000
    6       -5.428404   1.000000
    7       -5.392006   1.000000
    8       -5.355537   1.000000
    9       -5.265163   1.000000
   10       -5.244058   1.000000
   11       -5.223244   1.000000
   12       -5.164018   1.000000
   13       -5.063497   1.000000
   14       -5.062822   1.000000
   15       -4.863111   1.000000
   16       -4.708382   1.000000
   17       -4.676438   1.000000
   18       -4.667685   1.000000
   19       -4.609707   1.000000
   20       -4.588608   1.000000
   21       -4.568647   1.000000
   22       -4.212345   1.000000
   23       -4.202527   1.000000
   24       -4.191071   1.000000
   25       -4.131509   1.000000
   26       -4.112797   1.000000
   27       -4.074227   1.000000
   28       -4.029840   1.000000
   29       -3.993298   1.000000
   30       -3.950946   1.000000
   31       -3.869044   1.000000
   32       -3.865943   1.000000
   33       -3.829902   1.000000
   34       -3.809775   1.000000
   35       -3.797818   1.000000
   36       -3.771535   1.000000
   37       -3.763451   1.000000
   38       -3.726986   1.000000
   39       -3.722216   1.000000
   40       -3.708480   1.000000
   41       -3.690977   1.000000
   42       -3.660495   1.000000
   43       -3.538385   1.000000
   44       -3.529576   1.000000
   45       -3.275784   1.000000
   46       -3.123856   1.000000
   47       -3.121228   1.000000
   48       -3.100462   1.000000
   49       -3.095262   1.000000
   50       -3.077825   1.000000
   51       -3.065549   1.000000
   52       -2.999292   1.000000
   53       -2.976468   1.000000
   54       -2.934980   1.000000
   55       -2.840889   1.000000
   56       -2.830334   1.000000
   57       -2.767269   1.000000
   58       -2.752073   1.000000
   59       -2.735817   1.000000
   60       -2.482411   1.000000
   61       -2.470060   1.000000
   62       -2.303443   1.000000
   63       -2.295951   1.000000
   64       -2.254926   1.000000
   65       -2.223255   1.000000
   66       -2.214610   1.000000
   67       -2.197602   1.000000
   68       -2.160320   1.000000
   69       -2.153549   1.000000
   70       -2.126546   1.000000
   71       -2.106505   1.000000
   72       -2.084203   1.000000
   73       -2.069020   1.000000
   74       -2.025653   1.000000
   75       -2.006772   1.000000
   76       -1.992297   1.000000
   77       -1.977028   1.000000
   78       -1.949542   1.000000
   79       -1.927166   1.000000
   80       -1.876012   1.000000
   81       -1.873981   1.000000
   82       -1.852040   1.000000
   83       -1.831122   1.000000
   84       -1.802129   1.000000
   85       -1.793552   1.000000
   86       -1.753958   1.000000
   87       -1.739398   1.000000
   88       -1.718477   1.000000
   89       -1.706476   1.000000
   90       -1.579707   1.000000
   91       -1.569169   1.000000
   92       -1.561890   1.000000
   93       -1.523483   1.000000
   94       -1.516531   1.000000
   95       -1.493409   1.000000
   96       -1.486476   1.000000
   97       -1.463053   1.000000
   98       -1.443080   1.000000
   99       -1.415044   1.000000
  100       -1.392634   1.000000
  101       -1.391054   1.000000
  102       -1.346648   1.000000
  103       -1.308974   1.000000
  104       -1.257029   1.000000
  105       -1.230273   1.000000
  106       -1.217958   1.000000
  107       -1.206996   1.000000
  108       -1.206504   1.000000
  109       -1.196851   1.000000
  110       -1.136014   1.000000
  111       -1.130267   1.000000
  112       -1.062360   1.000000
  113       -1.051149   1.000000
  114       -1.019024   1.000000
  115       -0.854040   1.000000
  116       -0.809467   1.000000
  117       -0.789949   1.000000
  118       -0.703768   1.000000
  119       -0.699531   1.000000
  120       -0.609301   1.000000
  121       -0.607462   1.000000
  122       -0.591934   1.000000
  123       -0.557221   1.000000
  124       -0.552798   1.000000
  125       -0.519623   1.000000
  126       -0.456548   1.000000
  127       -0.449697   1.000000
  128       -0.376567   1.000000
  129       -0.289298   1.000000
  130       -0.279961   1.000000
  131       -0.199842   1.000000
  132       -0.162797   1.000000
  133       -0.108493   1.000000
  134       -0.100897   1.000000
  135       -0.061620   1.000000
  136       -0.023050   1.000000
  137       -0.018550   1.000000
  138       -0.014832   1.000000
  139        0.033304   0.999999
  140        0.048939   0.999999
  141        0.079421   0.999999
  142        0.151016   0.999998
  143        0.155465   0.999998
  144        0.190847   0.999997
  145        0.214356   0.999997
  146        0.277356   0.999994
  147        0.303247   0.999992
  148        0.307162   0.999992
  149        0.361726   0.999986
  150        0.411859   0.999977
  151        0.414012   0.999976
  152        0.441283   0.999969
  153        0.489225   0.999949
  154        0.497032   0.999945
  155        0.538521   0.999917
  156        0.548569   0.999908
  157        0.585788   0.999867
  158        0.627037   0.999799
  159        0.654173   0.999736
  160        0.657143   0.999728
  161        0.687112   0.999633
  162        0.690991   0.999619
  163        0.726673   0.999455
  164        0.740357   0.999376
  165        0.761636   0.999228
  166        0.783717   0.999037
  167        0.805255   0.998806
  168        0.857908   0.997980
  169        0.861346   0.997910
  170        0.878981   0.997507
  171        0.888195   0.997268
  172        0.910003   0.996604
  173        0.915260   0.996421
  174        0.949403   0.994972
  175        0.954349   0.994719
  176        0.956484   0.994605
  177        1.005730   0.991203
  178        1.041819   0.987427
  179        1.047230   0.986738
  180        1.105459   0.976505
  181        1.112274   0.974890
  182        1.131437   0.969746
  183        1.137417   0.967941
  184        1.185220   0.949289
  185        1.189507   0.947185
  186        1.217887   0.931048
  187        1.223695   0.927225
  188        1.257837   0.900554
  189        1.262355   0.896435
  190        1.278322   0.880646
  191        1.292759   0.864618
  192        1.295105   0.861848
  193        1.313807   0.838039
  194        1.396081   0.694441
  195        1.493597   0.461527
  196        1.502554   0.439359
  197        1.516221   0.406022
  198        1.549185   0.329582
  199        1.556965   0.312624
  200        1.585843   0.254139
  201        1.967001   0.007478
  202        2.044359   0.003464
  203        2.111012   0.001782
  204        2.240240   0.000490
  205        2.364518   0.000141
  206        2.417533   0.000083
  207        2.567209   0.000019
  208        3.476024   0.000000
  209        3.502553   0.000000
  210        4.339233   0.000000
  211        4.502348   0.000000
  212        4.654823   0.000000
  213        4.871886   0.000000
  214        5.173611   0.000000
  215        5.178160   0.000000
  216        5.810234   0.000000
  217        5.865015   0.000000
  218        6.056882   0.000000
  219        6.225258   0.000000
  220        6.361086   0.000000
  221        6.546507   0.000000
  222        6.641894   0.000000
  223        6.727208   0.000000
  224        6.773914   0.000000
  225        6.983420   0.000000
 
 -0.8333333E-01  0.0000000E+00  0.0000000E+00  0.1851852E-01
    1      -13.050674   1.000000
    2       -9.309450   1.000000
    3       -7.706561   1.000000
    4       -6.382045   1.000000
    5       -5.508811   1.000000
    6       -5.424002   1.000000
    7       -5.391918   1.000000
    8       -5.353598   1.000000
    9       -5.265264   1.000000
   10       -5.238859   1.000000
   11       -5.224065   1.000000
   12       -5.165554   1.000000
   13       -5.064289   1.000000
   14       -5.063481   1.000000
   15       -4.863300   1.000000
   16       -4.703341   1.000000
   17       -4.679313   1.000000
   18       -4.670531   1.000000
   19       -4.611152   1.000000
   20       -4.588290   1.000000
   21       -4.568085   1.000000
   22       -4.214854   1.000000
   23       -4.200193   1.000000
   24       -4.189277   1.000000
   25       -4.132065   1.000000
   26       -4.112197   1.000000
   27       -4.074534   1.000000
   28       -4.030450   1.000000
   29       -3.993207   1.000000
   30       -3.951104   1.000000
   31       -3.869012   1.000000
   32       -3.867722   1.000000
   33       -3.833170   1.000000
   34       -3.810790   1.000000
   35       -3.796144   1.000000
   36       -3.775042   1.000000
   37       -3.766244   1.000000
   38       -3.721827   1.000000
   39       -3.720213   1.000000
   40       -3.704845   1.000000
   41       -3.688540   1.000000
   42       -3.658813   1.000000
   43       -3.541054   1.000000
   44       -3.531275   1.000000
   45       -3.275948   1.000000
   46       -3.126160   1.000000
   47       -3.123383   1.000000
   48       -3.101304   1.000000
   49       -3.093072   1.000000
   50       -3.075752   1.000000
   51       -3.062423   1.000000
   52       -2.998682   1.000000
   53       -2.975377   1.000000
   54       -2.935832   1.000000
   55       -2.842788   1.000000
   56       -2.829772   1.000000
   57       -2.768353   1.000000
   58       -2.750409   1.000000
   59       -2.736974   1.000000
   60       -2.480558   1.000000
   61       -2.470134   1.000000
   62       -2.299566   1.000000
   63       -2.295832   1.000000
   64       -2.254876   1.000000
   65       -2.217210   1.000000
   66       -2.214547   1.000000
   67       -2.199989   1.000000
   68       -2.156955   1.000000
   69       -2.150346   1.000000
   70       -2.130925   1.000000
   71       -2.110207   1.000000
   72       -2.085876   1.000000
   73       -2.068680   1.000000
   74       -2.024907   1.000000
   75       -2.006437   1.000000
   76       -1.991096   1.000000
   77       -1.976817   1.000000
   78       -1.950198   1.000000
   79       -1.923948   1.000000
   80       -1.875809   1.000000
   81       -1.866884   1.000000
   82       -1.849620   1.000000
   83       -1.838051   1.000000
   84       -1.825379   1.000000
   85       -1.802074   1.000000
   86       -1.752148   1.000000
   87       -1.737475   1.000000
   88       -1.706119   1.000000
   89       -1.697804   1.000000
   90       -1.593586   1.000000
   91       -1.562075   1.000000
   92       -1.557867   1.000000
   93       -1.523130   1.000000
   94       -1.517099   1.000000
   95       -1.489477   1.000000
   96       -1.481866   1.000000
   97       -1.476258   1.000000
   98       -1.441880   1.000000
   99       -1.417275   1.000000
  100       -1.393561   1.000000
  101       -1.392148   1.000000
  102       -1.347555   1.000000
  103       -1.301670   1.000000
  104       -1.252316   1.000000
  105       -1.236173   1.000000
  106       -1.213681   1.000000
  107       -1.207386   1.000000
  108       -1.206637   1.000000
  109       -1.199074   1.000000
  110       -1.146214   1.000000
  111       -1.137401   1.000000
  112       -1.062153   1.000000
  113       -1.032453   1.000000
  114       -1.020853   1.000000
  115       -0.851761   1.000000
  116       -0.810626   1.000000
  117       -0.788845   1.000000
  118       -0.702272   1.000000
  119       -0.699982   1.000000
  120       -0.608489   1.000000
  121       -0.607958   1.000000
  122       -0.593259   1.000000
  123       -0.558685   1.000000
  124       -0.556357   1.000000
  125       -0.517625   1.000000
  126       -0.459864   1.000000
  127       -0.451415   1.000000
  128       -0.380405   1.000000
  129       -0.290779   1.000000
  130       -0.277203   1.000000
  131       -0.199413   1.000000
  132       -0.164238   1.000000
  133       -0.109637   1.000000
  134       -0.099101   1.000000
  135       -0.058133   1.000000
  136       -0.023300   1.000000
  137       -0.018572   1.000000
  138       -0.015148   1.000000
  139        0.031394   0.999999
  140        0.042632   0.999999
  141        0.074376   0.999999
  142        0.149002   0.999998
  143        0.155318   0.999998
  144        0.192874   0.999997
  145        0.215759   0.999997
  146        0.275352   0.999994
  147        0.302160   0.999992
  148        0.310813   0.999991
  149        0.362810   0.999986
  150        0.413679   0.999976
  151        0.416595   0.999975
  152        0.443515   0.999968
  153        0.491657   0.999948
  154        0.498882   0.999944
  155        0.539162   0.999916
  156        0.550158   0.999907
  157        0.588058   0.999864
  158        0.626087   0.999801
  159        0.649786   0.999748
  160        0.657695   0.999727
  161        0.684881   0.999641
  162        0.688373   0.999629
  163        0.725204   0.999463
  164        0.741958   0.999366
  165        0.763467   0.999213
  166        0.784012   0.999034
  167        0.804233   0.998818
  168        0.858262   0.997973
  169        0.859370   0.997950
  170        0.878874   0.997510
  171        0.886953   0.997301
  172        0.912203   0.996529
  173        0.919255   0.996276
  174        0.947659   0.995059
  175        0.955403   0.994663
  176        0.962592   0.994267
  177        1.001271   0.991583
  178        1.043407   0.987229
  179        1.048671   0.986548
  180        1.103536   0.976942
  181        1.113915   0.974485
  182        1.133922   0.969008
  183        1.139314   0.967347
  184        1.179941   0.951771
  185        1.184238   0.949760
  186        1.217570   0.931252
  187        1.220399   0.929418
  188        1.256744   0.901530
  189        1.260574   0.898076
  190        1.278318   0.880650
  191        1.290064   0.867742
  192        1.297036   0.859533
  193        1.309428   0.843894
  194        1.409481   0.665292
  195        1.486212   0.479925
  196        1.500971   0.443261
  197        1.525359   0.384187
  198        1.549920   0.327960
  199        1.557444   0.311596
  200        1.590343   0.245705
  201        1.962257   0.007839
  202        2.048739   0.003316
  203        2.113220   0.001743
  204        2.242253   0.000480
  205        2.360534   0.000147
  206        2.420676   0.000081
  207        2.561889   0.000020
  208        3.471685   0.000000
  209        3.506401   0.000000
  210        4.336308   0.000000
  211        4.500585   0.000000
  212        4.665005   0.000000
  213        4.870573   0.000000
  214        5.162607   0.000000
  215        5.186298   0.000000
  216        5.807595   0.000000
  217        5.863479   0.000000
  218        6.056942   0.000000
  219        6.229758   0.000000
  220        6.366868   0.000000
  221        6.551401   0.000000
  222        6.624709   0.000000
  223        6.725286   0.000000
  224        6.768908   0.000000
  225        6.940645   0.000000
 
  0.2500000E+00  0.8333333E-01  0.0000000E+00  0.1851852E-01
    1      -13.050189   1.000000
    2       -9.298784   1.000000
    3       -7.556326   1.000000
    4       -6.245409   1.000000
    5       -5.840718   1.000000
    6       -5.653666   1.000000
    7       -5.317119   1.000000
    8       -5.283636   1.000000
    9       -5.190127   1.000000
   10       -5.124058   1.000000
   11       -5.115792   1.000000
   12       -5.029702   1.000000
   13       -4.991909   1.000000
   14       -4.964121   1.000000
   15       -4.833994   1.000000
   16       -4.764294   1.000000
   17       -4.686796   1.000000
   18       -4.653917   1.000000
   19       -4.593842   1.000000
   20       -4.526476   1.000000
   21       -4.464933   1.000000
   22       -4.257505   1.000000
   23       -4.196156   1.000000
   24       -4.156383   1.000000
   25       -4.100200   1.000000
   26       -4.081908   1.000000
   27       -4.057233   1.000000
   28       -4.027112   1.000000
   29       -4.007322   1.000000
   30       -3.986415   1.000000
   31       -3.938090   1.000000
   32       -3.918649   1.000000
   33       -3.898047   1.000000
   34       -3.873838   1.000000
   35       -3.827055   1.000000
   36       -3.807491   1.000000
   37       -3.783513   1.000000
   38       -3.728595   1.000000
   39       -3.662714   1.000000
   40       -3.557748   1.000000
   41       -3.536376   1.000000
   42       -3.514102   1.000000
   43       -3.491992   1.000000
   44       -3.441309   1.000000
   45       -3.297808   1.000000
   46       -3.231285   1.000000
   47       -3.187937   1.000000
   48       -3.171356   1.000000
   49       -3.141118   1.000000
   50       -3.121355   1.000000
   51       -3.079437   1.000000
   52       -3.000430   1.000000
   53       -2.938950   1.000000
   54       -2.897084   1.000000
   55       -2.870383   1.000000
   56       -2.821706   1.000000
   57       -2.788730   1.000000
   58       -2.769766   1.000000
   59       -2.682680   1.000000
   60       -2.577984   1.000000
   61       -2.550056   1.000000
   62       -2.498275   1.000000
   63       -2.476000   1.000000
   64       -2.364956   1.000000
   65       -2.348794   1.000000
   66       -2.310783   1.000000
   67       -2.287386   1.000000
   68       -2.266991   1.000000
   69       -2.261003   1.000000
   70       -2.220389   1.000000
   71       -2.184160   1.000000
   72       -2.167814   1.000000
   73       -2.107781   1.000000
   74       -2.066133   1.000000
   75       -2.060791   1.000000
   76       -2.042986   1.000000
   77       -2.024452   1.000000
   78       -2.006171   1.000000
   79       -1.978545   1.000000
   80       -1.945414   1.000000
   81       -1.844956   1.000000
   82       -1.835952   1.000000
   83       -1.775814   1.000000
   84       -1.770613   1.000000
   85       -1.757120   1.000000
   86       -1.734187   1.000000
   87       -1.723201   1.000000
   88       -1.686978   1.000000
   89       -1.664836   1.000000
   90       -1.647578   1.000000
   91       -1.621169   1.000000
   92       -1.562294   1.000000
   93       -1.544470   1.000000
   94       -1.534848   1.000000
   95       -1.525392   1.000000
   96       -1.516113   1.000000
   97       -1.484868   1.000000
   98       -1.482591   1.000000
   99       -1.441302   1.000000
  100       -1.425753   1.000000
  101       -1.405770   1.000000
  102       -1.380970   1.000000
  103       -1.340200   1.000000
  104       -1.313778   1.000000
  105       -1.299281   1.000000
  106       -1.282826   1.000000
  107       -1.248575   1.000000
  108       -1.226779   1.000000
  109       -1.200916   1.000000
  110       -1.153579   1.000000
  111       -1.136775   1.000000
  112       -1.119138   1.000000
  113       -1.095177   1.000000
  114       -1.049584   1.000000
  115       -1.017274   1.000000
  116       -0.956231   1.000000
  117       -0.896833   1.000000
  118       -0.877874   1.000000
  119       -0.817552   1.000000
  120       -0.808059   1.000000
  121       -0.670435   1.000000
  122       -0.631194   1.000000
  123       -0.615044   1.000000
  124       -0.573994   1.000000
  125       -0.550777   1.000000
  126       -0.534556   1.000000
  127       -0.485940   1.000000
  128       -0.399736   1.000000
  129       -0.361710   1.000000
  130       -0.330069   1.000000
  131       -0.273250   1.000000
  132       -0.219747   1.000000
  133       -0.170208   1.000000
  134       -0.146323   1.000000
  135       -0.135138   1.000000
  136       -0.117491   1.000000
  137       -0.100810   1.000000
  138       -0.059560   1.000000
  139       -0.034868   1.000000
  140        0.017233   1.000000
  141        0.086225   0.999999
  142        0.101859   0.999999
  143        0.139648   0.999998
  144        0.169905   0.999998
  145        0.193852   0.999997
  146        0.217157   0.999997
  147        0.246933   0.999996
  148        0.277353   0.999994
  149        0.300548   0.999992
  150        0.319317   0.999991
  151        0.340476   0.999989
  152        0.359162   0.999986
  153        0.397797   0.999980
  154        0.432057   0.999971
  155        0.467211   0.999959
  156        0.480676   0.999953
  157        0.523888   0.999928
  158        0.537936   0.999917
  159        0.554574   0.999903
  160        0.621558   0.999810
  161        0.666159   0.999703
  162        0.722173   0.999479
  163        0.729508   0.999440
  164        0.773052   0.999134
  165        0.810124   0.998746
  166        0.843973   0.998242
  167        0.893658   0.997115
  168        0.905765   0.996744
  169        0.936565   0.995575
  170        0.962033   0.994299
  171        1.015030   0.990354
  172        1.039730   0.987684
  173        1.067058   0.983876
  174        1.108108   0.975889
  175        1.129830   0.970214
  176        1.148257   0.964401
  177        1.159995   0.960144
  178        1.187715   0.948074
  179        1.232407   0.921123
  180        1.241925   0.913924
  181        1.277413   0.881597
  182        1.290110   0.867689
  183        1.326410   0.820195
  184        1.348487   0.785314
  185        1.365460   0.755317
  186        1.381524   0.724427
  187        1.420216   0.640979
  188        1.446623   0.578238
  189        1.465352   0.532021
  190        1.495979   0.455613
  191        1.519202   0.398854
  192        1.524951   0.385154
  193        1.557268   0.311973
  194        1.623747   0.189126
  195        1.656733   0.143618
  196        1.693759   0.103789
  197        1.719569   0.082118
  198        1.781710   0.045855
  199        1.801961   0.037767
  200        1.944256   0.009370
  201        1.967415   0.007448
  202        2.025942   0.004162
  203        2.337757   0.000185
  204        2.493295   0.000039
  205        2.771608   0.000002
  206        3.013268   0.000000
  207        3.100574   0.000000
  208        3.384709   0.000000
  209        3.564825   0.000000
  210        4.132381   0.000000
  211        4.393457   0.000000
  212        4.713853   0.000000
  213        4.875841   0.000000
  214        5.105954   0.000000
  215        5.357369   0.000000
  216        5.433030   0.000000
  217        5.565585   0.000000
  218        5.861115   0.000000
  219        6.009082   0.000000
  220        6.181651   0.000000