       N       E                     dE             d eps       ncg     rms          rms(c)
DAV:   1     0.219425303457E+04    0.21943E+04   -0.14673E+05 24350   0.117E+03
DAV:   2    -0.916785492072E+02   -0.22859E+04   -0.21170E+04 28390   0.269E+02
DAV:   3    -0.250301179543E+03   -0.15862E+03   -0.14408E+03 29330   0.641E+01
DAV:   4    -0.256999024441E+03   -0.66978E+01   -0.64982E+01 30940   0.128E+01    0.639E+01
RMM:   5    -0.244883108997E+03    0.12116E+02   -0.54070E+01 25882   0.146E+01    0.430E+01
RMM:   6    -0.287801912406E+03   -0.42919E+02   -0.75766E+01 25810   0.132E+01    0.565E+01
RMM:   7    -0.246593907545E+03    0.41208E+02   -0.30240E+01 25232   0.910E+00    0.249E+01
RMM:   8    -0.252951259536E+03   -0.63574E+01   -0.17928E+01 25786   0.663E+00    0.331E+01
RMM:   9    -0.248199283646E+03    0.47520E+01   -0.10383E+01 26007   0.496E+00    0.276E+01
RMM:  10    -0.240044007342E+03    0.81553E+01   -0.33242E+00 25123   0.310E+00    0.990E+00
RMM:  11    -0.239611869164E+03    0.43214E+00   -0.13806E+00 25546   0.188E+00    0.729E+00
RMM:  12    -0.239294037840E+03    0.31783E+00   -0.50791E-01 25893   0.113E+00    0.451E+00
RMM:  13    -0.239172479300E+03    0.12156E+00   -0.19382E-01 25993   0.699E-01    0.218E+00
RMM:  14    -0.239164110800E+03    0.83685E-02   -0.88258E-02 26097   0.472E-01    0.179E+00
RMM:  15    -0.239138165286E+03    0.25946E-01   -0.19793E-02 25727   0.236E-01    0.101E+00
RMM:  16    -0.239132254703E+03    0.59106E-02   -0.12525E-02 25610   0.179E-01    0.761E-01
RMM:  17    -0.239128120686E+03    0.41340E-02   -0.68062E-03 25765   0.131E-01    0.432E-01
RMM:  18    -0.239127239021E+03    0.88167E-03   -0.23989E-03 26007   0.820E-02    0.194E-01
RMM:  19    -0.239126699204E+03    0.53982E-03   -0.74075E-04 25974   0.441E-02    0.139E-01
RMM:  20    -0.239126561233E+03    0.13797E-03   -0.33234E-04 26058   0.301E-02    0.105E-01
RMM:  21    -0.239126520046E+03    0.41187E-04   -0.30328E-04 25823   0.256E-02    0.889E-02
RMM:  22    -0.239126547873E+03   -0.27827E-04   -0.15150E-04 26258   0.181E-02    0.541E-02
RMM:  23    -0.239126674607E+03   -0.12673E-03   -0.12614E-04 25740   0.165E-02    0.498E-02
RMM:  24    -0.239127044577E+03   -0.36997E-03   -0.21487E-04 25252   0.205E-02    0.102E-01
RMM:  25    -0.239127152969E+03   -0.10839E-03   -0.36575E-05 26457   0.896E-03    0.747E-02
RMM:  26    -0.239127479441E+03   -0.32647E-03   -0.51389E-05 25406   0.116E-02    0.247E-02
RMM:  27    -0.239127670895E+03   -0.19145E-03   -0.14108E-05 25927   0.549E-03    0.275E-02
RMM:  28    -0.239127853073E+03   -0.18218E-03   -0.78104E-06 21350   0.381E-03    0.197E-02
RMM:  29    -0.239128006176E+03   -0.15310E-03   -0.57821E-06 19337   0.322E-03    0.141E-02
RMM:  30    -0.239128197595E+03   -0.19142E-03   -0.82463E-06 19890   0.362E-03    0.550E-03
RMM:  31    -0.239128254341E+03   -0.56747E-04   -0.18746E-06 16579   0.171E-03    0.582E-03
RMM:  32    -0.239128322054E+03   -0.67713E-04   -0.18899E-06 15952   0.165E-03    0.384E-03
RMM:  33    -0.239128349331E+03   -0.27277E-04   -0.88984E-07 15018   0.112E-03    0.263E-03
RMM:  34    -0.239128368591E+03   -0.19260E-04   -0.77837E-07 14032   0.986E-04    0.130E-03
RMM:  35    -0.239128375084E+03   -0.64928E-05   -0.31160E-07  9768   0.654E-04    0.795E-04
RMM:  36    -0.239128381437E+03   -0.63522E-05   -0.41049E-07 12798   0.767E-04    0.579E-04
RMM:  37    -0.239128383089E+03   -0.16521E-05   -0.13259E-07  7349   0.489E-04    0.474E-04
RMM:  38    -0.239128383806E+03   -0.71706E-06   -0.54461E-08  5256   0.448E-04
   1 F= -.23912838E+03 E0= -.23809305E+03  d E =-.207066E+01
