 vasp.5.4.1 24Jun15 (build Oct 10 2016 12:42:00) complex                        
  
 executed on           IFC91_ompi date 2018.05.21  15:31:31
 running on   20 total cores
 distrk:  each k-point on   20 cores,    1 groups
 distr:  one band on NCORES_PER_BAND=   4 cores,    5 groups


--------------------------------------------------------------------------------------------------------


 INCAR:
 POTCAR:    PAW_PBE Pt 04Feb2005                  
 POTCAR:    PAW_PBE C 08Apr2002                   
 POTCAR:    PAW_PBE H 15Jun2001                   
 POTCAR:    PAW_PBE Pt 04Feb2005                  
   VRHFIN =Pt: s1d9                                                             
   LEXCH  = PE                                                                  
   EATOM  =   729.1176 eV,   53.5886 Ry                                         
                                                                                
   TITEL  = PAW_PBE Pt 04Feb2005                                                
   LULTRA =        F    use ultrasoft PP ?                                      
   IUNSCR =        1    unscreen: 0-lin 1-nonlin 2-no                           
   RPACOR =    2.330    partial core radius                                     
   POMASS =  195.080; ZVAL   =   10.000    mass and valenz                      
   RCORE  =    2.600    outmost cutoff radius                                   
   RWIGS  =    2.750; RWIGS  =    1.455    wigner-seitz radius (au A)           
   ENMAX  =  230.283; ENMIN  =  172.712 eV                                      
   ICORE  =        3    local potential                                         
   LCOR   =        T    correct aug charges                                     
   LPAW   =        T    paw PP                                                  
   EAUG   =  358.966                                                            
   DEXC   =    0.000                                                            
   RMAX   =    2.658    core radius for proj-oper                               
   RAUG   =    1.300    factor for augmentation sphere                          
   RDEP   =    2.761    radius for radial grids                                 
   RDEPT  =    2.203    core radius for aug-charge                              
                                                                                
   Atomic configuration                                                         
   16 entries                                                                   
     n  l   j            E        occ.                                          
     1  0  0.50    -78401.1885   2.0000                                         
     2  0  0.50    -13770.7750   2.0000                                         
     2  1  1.50    -11931.0468   6.0000                                         
     3  0  0.50     -3234.7234   2.0000                                         
     3  1  1.50     -2699.2216   6.0000                                         
     3  2  2.50     -2119.5714  10.0000                                         
     4  0  0.50      -695.1528   2.0000                                         
     4  1  1.50      -519.6034   6.0000                                         
     4  2  2.50      -306.6786  10.0000                                         
     4  3  3.50       -70.1041  14.0000                                         
     5  0  0.50      -101.7747   2.0000                                         
     5  1  1.50       -55.9873   6.0000                                         
     5  2  2.50        -6.1423   9.0000                                         
     6  0  0.50        -5.6573   1.0000                                         
     6  1  1.50        -6.8029   0.0000                                         
     5  3  2.50        -1.3606   0.0000                                         
   Description                                                                  
     l       E           TYP  RCUT    TYP  RCUT                                 
     2     -6.1423404     23  2.500                                             
     2     -7.5029230     23  2.500                                             
     0     -5.6573207     23  2.500                                             
     0      0.7416693     23  2.500                                             
     1     -2.7211652     23  2.600                                             
     1     20.4087390     23  2.600                                             
     3     -1.3605826     23  2.500                                             
  local pseudopotential read in
  partial core-charges read in
  partial kinetic energy density read in
  atomic valenz-charges read in
  non local Contribution for L=           2  read in
    real space projection operators read in
  non local Contribution for L=           2  read in
    real space projection operators read in
  non local Contribution for L=           0  read in
    real space projection operators read in
  non local Contribution for L=           0  read in
    real space projection operators read in
  non local Contribution for L=           1  read in
    real space projection operators read in
  non local Contribution for L=           1  read in
    real space projection operators read in
    PAW grid and wavefunctions read in
 
   number of l-projection  operators is LMAX  =           6
   number of lm-projection operators is LMMAX =          18
 
 POTCAR:    PAW_PBE C 08Apr2002                   
   VRHFIN =C: s2p2                                                              
   LEXCH  = PE                                                                  
   EATOM  =   147.1560 eV,   10.8157 Ry                                         
                                                                                
   TITEL  = PAW_PBE C 08Apr2002                                                 
   LULTRA =        F    use ultrasoft PP ?                                      
   IUNSCR =        1    unscreen: 0-lin 1-nonlin 2-no                           
   RPACOR =    1.200    partial core radius                                     
   POMASS =   12.011; ZVAL   =    4.000    mass and valenz                      
   RCORE  =    1.500    outmost cutoff radius                                   
   RWIGS  =    1.630; RWIGS  =    0.863    wigner-seitz radius (au A)           
   ENMAX  =  400.000; ENMIN  =  300.000 eV                                      
   ICORE  =        2    local potential                                         
   LCOR   =        T    correct aug charges                                     
   LPAW   =        T    paw PP                                                  
   EAUG   =  644.873                                                            
   DEXC   =    0.000                                                            
   RMAX   =    1.529    core radius for proj-oper                               
   RAUG   =    1.300    factor for augmentation sphere                          
   RDEP   =    1.501    radius for radial grids                                 
   RDEPT  =    1.300    core radius for aug-charge                              
                                                                                
   Atomic configuration                                                         
    4 entries                                                                   
     n  l   j            E        occ.                                          
     1  0  0.50      -273.3789   2.0000                                         
     2  0  0.50       -13.7508   2.0000                                         
     2  1  0.50        -5.2854   2.0000                                         
     3  2  1.50        -5.4423   0.0000                                         
   Description                                                                  
     l       E           TYP  RCUT    TYP  RCUT                                 
     0    -13.7508458     23  1.200                                             
     0     -8.2022199     23  1.200                                             
     1     -5.2854383     23  1.500                                             
     1     34.0145650     23  1.500                                             
     2     -5.4423304      7  1.500                                             
  local pseudopotential read in
  partial core-charges read in
  partial kinetic energy density read in
  atomic valenz-charges read in
  non local Contribution for L=           0  read in
    real space projection operators read in
  non local Contribution for L=           0  read in
    real space projection operators read in
  non local Contribution for L=           1  read in
    real space projection operators read in
  non local Contribution for L=           1  read in
    real space projection operators read in
    PAW grid and wavefunctions read in
 
   number of l-projection  operators is LMAX  =           4
   number of lm-projection operators is LMMAX =           8
 
 POTCAR:    PAW_PBE H 15Jun2001                   
   VRHFIN =H: ultrasoft test                                                    
   LEXCH  = PE                                                                  
   EATOM  =    12.4884 eV,    0.9179 Ry                                         
                                                                                
   TITEL  = PAW_PBE H 15Jun2001                                                 
   LULTRA =        F    use ultrasoft PP ?                                      
   IUNSCR =        0    unscreen: 0-lin 1-nonlin 2-no                           
   RPACOR =    0.000    partial core radius                                     
   POMASS =    1.000; ZVAL   =    1.000    mass and valenz                      
   RCORE  =    1.100    outmost cutoff radius                                   
   RWIGS  =    0.700; RWIGS  =    0.370    wigner-seitz radius (au A)           
   ENMAX  =  250.000; ENMIN  =  200.000 eV                                      
   RCLOC  =    0.701    cutoff for local pot                                    
   LCOR   =        T    correct aug charges                                     
   LPAW   =        T    paw PP                                                  
   EAUG   =  400.000                                                            
   RMAX   =    1.123    core radius for proj-oper                               
   RAUG   =    1.200    factor for augmentation sphere                          
   RDEP   =    1.112    radius for radial grids                                 
   RDEPT  =    0.926    core radius for aug-charge                              
                                                                                
   Atomic configuration                                                         
    2 entries                                                                   
     n  l   j            E        occ.                                          
     1  0  0.50        -6.4927   1.0000                                         
     2  1  0.50        -3.4015   0.0000                                         
   Description                                                                  
     l       E           TYP  RCUT    TYP  RCUT                                 
     0     -6.4927494     23  1.100                                             
     0      6.8029130     23  1.100                                             
     1     -4.0817478     23  1.100                                             
  local pseudopotential read in
  atomic valenz-charges read in
  non local Contribution for L=           0  read in
    real space projection operators read in
  non local Contribution for L=           0  read in
    real space projection operators read in
  non local Contribution for L=           1  read in
    real space projection operators read in
    PAW grid and wavefunctions read in
 
   number of l-projection  operators is LMAX  =           3
   number of lm-projection operators is LMMAX =           5
 
 Optimization of the real space projectors (new method)

 maximal supplied QI-value         = 14.36
 optimisation between [QCUT,QGAM] = [ 10.20, 20.39] = [ 29.12,116.47] Ry 
 Optimized for a Real-space Cutoff    1.51 Angstroem

   l    n(q)    QCUT    max X(q) W(low)/X(q) W(high)/X(q)  e(spline) 
   2      8    10.197    66.195    0.45E-03    0.45E-03    0.14E-06
   2      8    10.197    64.643    0.46E-03    0.46E-03    0.14E-06
   0      9    10.197    95.520    0.15E-03    0.11E-03    0.54E-07
   0      9    10.197    63.403    0.15E-03    0.11E-03    0.52E-07
   1      9    10.197    19.961    0.13E-03    0.17E-03    0.77E-07
   1      9    10.197    13.289    0.10E-03    0.15E-03    0.67E-07
 Optimization of the real space projectors (new method)

 maximal supplied QI-value         = 25.13
 optimisation between [QCUT,QGAM] = [ 10.05, 20.36] = [ 28.30,116.06] Ry 
 Optimized for a Real-space Cutoff    1.30 Angstroem

   l    n(q)    QCUT    max X(q) W(low)/X(q) W(high)/X(q)  e(spline) 
   0      8    10.053   115.676    0.49E-03    0.72E-03    0.18E-06
   0      8    10.053    87.132    0.49E-03    0.71E-03    0.18E-06
   1      7    10.053     4.429    0.32E-03    0.31E-03    0.18E-06
   1      7    10.053     2.733    0.23E-03    0.19E-03    0.20E-06
 Optimization of the real space projectors (new method)

 maximal supplied QI-value         = 34.20
 optimisation between [QCUT,QGAM] = [  9.92, 20.18] = [ 27.55,114.04] Ry 
 Optimized for a Real-space Cutoff    1.26 Angstroem

   l    n(q)    QCUT    max X(q) W(low)/X(q) W(high)/X(q)  e(spline) 
   0      8     9.919    19.460    0.50E-03    0.23E-03    0.29E-06
   0      8     9.919    12.209    0.48E-03    0.23E-03    0.28E-06
   1      7     9.919     4.655    0.17E-03    0.75E-03    0.30E-06
  PAW_PBE Pt 04Feb2005                  :
 energy of atom  1       EATOM= -729.1176
 kinetic energy error for atom=    0.0056 (will be added to EATOM!!)
  PAW_PBE C 08Apr2002                   :
 energy of atom  2       EATOM= -147.1560
 kinetic energy error for atom=    0.0288 (will be added to EATOM!!)
  PAW_PBE H 15Jun2001                   :
 energy of atom  3       EATOM=  -12.4884
 kinetic energy error for atom=    0.0098 (will be added to EATOM!!)
 
 
 POSCAR: Pt  C  H                                
  positions in cartesian coordinates
  No initial velocities read in
 exchange correlation table for  LEXCH =        8
   RHO(1)=    0.500       N(1)  =     2000
   RHO(2)=  100.500       N(2)  =     4000

 VTST: version 3.1, (03/28/14)

 CHAIN: initializing optimizer
 
 OPT: Using VASP Dynamics algorithm
 CHAIN: Read ICHAIN            0
 
 POSCAR: Pt  C  H                                
  positions in cartesian coordinates
  No initial velocities read in
 


--------------------------------------------------------------------------------------------------------


 ion  position               nearest neighbor table
   1  0.000  0.000  0.343-  12 2.81  16 2.81  10 2.81   6 2.81   7 2.81   8 2.81   2 2.81   3 2.81
                             4 2.81
   2  0.333  0.000  0.343-  10 2.81  11 2.81  17 2.81   3 2.81   9 2.81   1 2.81   4 2.81   5 2.81
                             8 2.81
   3  0.667  0.000  0.343-  11 2.81  18 2.81  12 2.81   2 2.81   5 2.81   9 2.81   1 2.81   6 2.81
                             7 2.81
   4  0.000  0.333  0.343-  10 2.81  13 2.81  15 2.81   7 2.81   9 2.81   2 2.81   5 2.81   6 2.81
                             1 2.81
   5  0.333  0.333  0.343-  14 2.81  13 2.81  11 2.81   8 2.81   6 2.81   3 2.81   7 2.81   2 2.81
                             4 2.81
   6  0.667  0.333  0.343-  12 2.81  14 2.81  15 2.81   5 2.81   8 2.81   9 2.81   1 2.81   3 2.81
                             4 2.81
   7  0.000  0.667  0.343-  13 2.81  18 2.81  16 2.81   4 2.81   5 2.81   9 2.81   1 2.81   3 2.81
                             8 2.81
   8  0.333  0.667  0.343-  14 2.81  16 2.81  17 2.81   5 2.81   6 2.81   9 2.81   2 2.81   7 2.81
                             1 2.81
   9  0.667  0.667  0.343-  15 2.81  17 2.81  18 2.81   8 2.81   6 2.81   4 2.81   2 2.81   3 2.81
                             7 2.81
  10  0.111  0.111  0.448-  26 2.80   4 2.81   2 2.81   1 2.81  13 2.81  11 2.81  17 2.81  15 2.81
                            12 2.81  16 2.81  20 2.81  19 2.82
  11  0.444  0.111  0.448-  27 2.77  20 2.80   5 2.81   2 2.81   3 2.81  14 2.81  10 2.81  13 2.81
                            18 2.81  12 2.81  17 2.81  21 2.81
  12  0.778  0.111  0.448-  25 2.77  19 2.80   1 2.81   6 2.81   3 2.81  15 2.81  14 2.81  16 2.81
                            18 2.81  10 2.81  11 2.81  21 2.82
  13  0.111  0.444  0.448-  22 2.79  20 2.79   7 2.81   4 2.81   5 2.81  14 2.81  10 2.81  11 2.81
                            18 2.81  15 2.81  16 2.81  23 2.81
  14  0.444  0.444  0.448-  21 2.79  24 2.80   5 2.81   6 2.81   8 2.81  11 2.81  13 2.81  12 2.81
                            16 2.81  15 2.81  17 2.81  23 2.81
  15  0.778  0.444  0.448-  22 2.78  19 2.79   9 2.81   4 2.81   6 2.81  12 2.81  10 2.81  17 2.81
                            18 2.81  13 2.81  14 2.81  24 2.82
  16  0.111  0.778  0.448-  25 2.79  26 2.80  23 2.80   8 2.81   1 2.81   7 2.81  17 2.81  14 2.81
                            18 2.81  13 2.81  10 2.81  12 2.81
  17  0.444  0.778  0.448-  27 2.78  24 2.80  26 2.81   2 2.81   8 2.81   9 2.81  16 2.81  10 2.81
                            18 2.81  14 2.81  15 2.81  11 2.81
  18  0.778  0.778  0.448-  22 2.78  25 2.78  27 2.79   7 2.81   3 2.81   9 2.81  15 2.81  16 2.81
                            17 2.81  11 2.81  12 2.81  13 2.81
  19  0.885  0.225  0.552-  15 2.79  28 2.79  24 2.79  21 2.79  12 2.80  25 2.80  22 2.81  31 2.81
                            10 2.82  26 2.83  20 2.83  33 2.89
  20  0.221  0.225  0.552-  13 2.79  29 2.79  21 2.79  23 2.80  11 2.80  22 2.81  27 2.81  10 2.81
                            31 2.81  26 2.83  19 2.83  32 2.89
  21  0.553  0.225  0.552-  14 2.79  20 2.79  23 2.79  19 2.79  24 2.80  30 2.80  11 2.81  27 2.81
                            25 2.81  12 2.82  33 2.92  32 2.93
  22  0.887  0.557  0.551-  18 2.78  15 2.78  13 2.79  20 2.81  19 2.81  31 2.81  34 2.81  27 2.81
                            25 2.81  23 2.81  36 2.81  24 2.82
  23  0.222  0.557  0.552-  24 2.79  21 2.79  20 2.80  26 2.80  16 2.80  14 2.81  13 2.81  22 2.81
                            25 2.81  34 2.82  32 2.91  35 2.92
  24  0.553  0.557  0.552-  23 2.79  19 2.79  26 2.80  21 2.80  17 2.80  14 2.80  27 2.81  36 2.81
                            22 2.82  15 2.82  33 2.90  35 2.93
  25  0.887  0.891  0.551-  12 2.77  18 2.78  16 2.79  34 2.80  26 2.80  19 2.80  22 2.81  27 2.81
                            21 2.81  23 2.81  30 2.82  28 2.82
  26  0.221  0.889  0.552-  24 2.80  23 2.80  16 2.80  10 2.80  25 2.80  27 2.80  29 2.81  17 2.81
                            28 2.81  20 2.83  19 2.83  35 2.88
  27  0.553  0.891  0.551-  11 2.77  17 2.78  18 2.79  36 2.80  26 2.80  20 2.81  30 2.81  22 2.81
                            25 2.81  24 2.81  21 2.81  29 2.83
  28  0.996  0.004  0.656-  35 2.78  33 2.78  19 2.79  31 2.81  34 2.81  29 2.81  30 2.81  26 2.81
                            25 2.82
  29  0.330  0.005  0.656-  35 2.78  32 2.78  20 2.79  30 2.80  26 2.81  31 2.81  28 2.81  36 2.81
                            27 2.83
  30  0.665  0.000  0.656-  34 2.76  36 2.76  21 2.80  29 2.80  27 2.81  28 2.81  25 2.82  33 2.84
                            32 2.84
  31  0.996  0.338  0.656-  32 2.78  33 2.78  36 2.81  29 2.81  28 2.81  19 2.81  22 2.81  34 2.81
                            20 2.81
  32  0.327  0.336  0.663-  37 2.01  31 2.78  29 2.78  34 2.83  30 2.84  33 2.86  35 2.87  20 2.89
                            23 2.91  21 2.93
  33  0.667  0.335  0.663-  37 2.01  28 2.78  31 2.78  30 2.84  36 2.84  32 2.86  35 2.87  19 2.89
                            24 2.90  21 2.92
  34  0.992  0.673  0.656-  36 2.76  30 2.76  25 2.80  31 2.81  28 2.81  22 2.81  23 2.82  32 2.83
                            35 2.84
  35  0.327  0.676  0.663-  37 2.01  28 2.78  29 2.78  36 2.84  34 2.84  32 2.87  33 2.87  26 2.88
                            23 2.92  24 2.93
  36  0.665  0.673  0.656-  34 2.76  30 2.76  27 2.80  31 2.81  29 2.81  24 2.81  22 2.81  35 2.84
                            33 2.84
  37  0.441  0.449  0.715-  38 1.49  35 2.01  32 2.01  33 2.01
  38  0.441  0.449  0.783-  40 1.10  39 1.10  41 1.10  37 1.49
  39  0.300  0.525  0.801-  38 1.10
  40  0.507  0.307  0.801-  38 1.10
  41  0.517  0.515  0.801-  38 1.10
 
  LATTYP: Found a hexagonal cell.
 ALAT       =     8.4216417639
 C/A-ratio  =     2.5976219743
  
  Lattice vectors:
  
 A1 = (   4.2108208820,  -7.2933557091,   0.0000000000)
 A2 = (  -8.4216417639,   0.0000000000,   0.0000000000)
 A3 = (   0.0000000000,   0.0000000000, -21.8762417060)


Analysis of symmetry for initial positions (statically):
=====================================================================
 Subroutine PRICEL returns:
 Original cell was already a primitive cell.
 

 Routine SETGRP: Setting up the symmetry group for a 
 hexagonal supercell.


 Subroutine GETGRP returns: Found  1 space group operations
 (whereof  1 operations were pure point group operations)
 out of a pool of 24 trial point group operations.


The static configuration has the point symmetry C_1 .


Analysis of symmetry for dynamics (positions and initial velocities):
=====================================================================
 Subroutine PRICEL returns:
 Original cell was already a primitive cell.
 

 Routine SETGRP: Setting up the symmetry group for a 
 hexagonal supercell.


 Subroutine GETGRP returns: Found  1 space group operations
 (whereof  1 operations were pure point group operations)
 out of a pool of 24 trial point group operations.


The dynamic configuration has the point symmetry C_1 .


Analysis of constrained symmetry for selective dynamics:
=====================================================================
 Subroutine PRICEL returns:
 Original cell was already a primitive cell.
 

 Routine SETGRP: Setting up the symmetry group for a 
 hexagonal supercell.


 Subroutine GETGRP returns: Found  1 space group operations
 (whereof  1 operations were pure point group operations)
 out of a pool of 24 trial point group operations.


The constrained configuration has the point symmetry C_1 .
 
 
 KPOINTS: KPOINTS created by Atomic Simulation Env

Automatic generation of k-mesh.
Space group operators:
 irot       det(A)        alpha          n_x          n_y          n_z        tau_x        tau_y        tau_z
    1     1.000000     0.000000     1.000000     0.000000     0.000000     0.000000     0.000000     0.000000
 
 Subroutine IBZKPT returns following result:
 ===========================================
 
 Found     54 irreducible k-points:
 
 Following reciprocal coordinates:
            Coordinates               Weight
  0.083333  0.083333  0.000000     16.000000
  0.000000  0.083333  0.000000     16.000000
 -0.083333  0.000000  0.000000     16.000000
  0.250000  0.083333  0.000000     16.000000
  0.166667  0.250000  0.000000     16.000000
 -0.083333  0.166667  0.000000     16.000000
  0.166667 -0.083333  0.000000     16.000000
 -0.083333 -0.250000  0.000000     16.000000
 -0.250000 -0.166667  0.000000     16.000000
  0.416667  0.083333  0.000000     16.000000
  0.333333  0.416667  0.000000     16.000000
 -0.083333  0.333333  0.000000     16.000000
  0.333333 -0.083333  0.000000     16.000000
 -0.083333 -0.416667  0.000000     16.000000
 -0.416667 -0.333333  0.000000     16.000000
 -0.416667  0.083333  0.000000     16.000000
  0.500000 -0.416667  0.000000     16.000000
 -0.083333  0.500000  0.000000     16.000000
  0.500000 -0.083333  0.000000     16.000000
 -0.083333  0.416667  0.000000     16.000000
  0.416667  0.500000  0.000000     16.000000
 -0.250000  0.083333  0.000000     16.000000
 -0.333333 -0.250000  0.000000     16.000000
 -0.083333 -0.333333  0.000000     16.000000
 -0.333333 -0.083333  0.000000     16.000000
 -0.083333  0.250000  0.000000     16.000000
  0.250000  0.333333  0.000000     16.000000
 -0.083333  0.083333  0.000000     16.000000
 -0.166667 -0.083333  0.000000     16.000000
 -0.083333 -0.166667  0.000000     16.000000
  0.250000  0.250000  0.000000     16.000000
  0.000000  0.250000  0.000000     16.000000
 -0.250000  0.000000  0.000000     16.000000
  0.416667  0.250000  0.000000     16.000000
  0.166667  0.416667  0.000000     16.000000
 -0.250000  0.166667  0.000000     16.000000
  0.166667 -0.250000  0.000000     16.000000
 -0.250000 -0.416667  0.000000     16.000000
 -0.416667 -0.166667  0.000000     16.000000
 -0.416667  0.250000  0.000000     16.000000
  0.333333 -0.416667  0.000000     16.000000
 -0.250000  0.333333  0.000000     16.000000
  0.333333 -0.250000  0.000000     16.000000
 -0.250000  0.416667  0.000000     16.000000
  0.416667 -0.333333  0.000000     16.000000
 -0.250000  0.250000  0.000000     16.000000
  0.500000 -0.250000  0.000000     16.000000
 -0.250000  0.500000  0.000000     16.000000
  0.416667  0.416667  0.000000     16.000000
  0.000000  0.416667  0.000000     16.000000
 -0.416667 -0.000000  0.000000     16.000000
 -0.416667  0.416667  0.000000     16.000000
  0.166667 -0.416667  0.000000     16.000000
 -0.416667  0.166667  0.000000     16.000000
 
 Following cartesian coordinates:
            Coordinates               Weight
  0.009895  0.005713  0.000000     16.000000
  0.000000  0.011426  0.000000     16.000000
 -0.009895  0.005713  0.000000     16.000000
  0.029685 -0.005713  0.000000     16.000000
  0.019790  0.022852  0.000000     16.000000
 -0.009895  0.028565  0.000000     16.000000
  0.019790 -0.022852  0.000000     16.000000
 -0.009895 -0.028565  0.000000     16.000000
 -0.029685 -0.005713  0.000000     16.000000
  0.049476 -0.017139  0.000000     16.000000
  0.039581  0.034278  0.000000     16.000000
 -0.009895  0.051417  0.000000     16.000000
  0.039581 -0.034278  0.000000     16.000000
 -0.009895 -0.051417  0.000000     16.000000
 -0.049476 -0.017139  0.000000     16.000000
 -0.049476  0.039991  0.000000     16.000000
  0.059371 -0.091407  0.000000     16.000000
 -0.009895  0.074269  0.000000     16.000000
  0.059371 -0.045704  0.000000     16.000000
 -0.009895  0.062843  0.000000     16.000000
  0.049476  0.039991  0.000000     16.000000
 -0.029685  0.028565  0.000000     16.000000
 -0.039581 -0.011426  0.000000     16.000000
 -0.009895 -0.039991  0.000000     16.000000
 -0.039581  0.011426  0.000000     16.000000
 -0.009895  0.039991  0.000000     16.000000
  0.029685  0.028565  0.000000     16.000000
 -0.009895  0.017139  0.000000     16.000000
 -0.019790  0.000000  0.000000     16.000000
 -0.009895 -0.017139  0.000000     16.000000
  0.029685  0.017139  0.000000     16.000000
  0.000000  0.034278  0.000000     16.000000
 -0.029685  0.017139  0.000000     16.000000
  0.049476  0.005713  0.000000     16.000000
  0.019790  0.045704  0.000000     16.000000
 -0.029685  0.039991  0.000000     16.000000
  0.019790 -0.045704  0.000000     16.000000
 -0.029685 -0.039991  0.000000     16.000000
 -0.049476  0.005713  0.000000     16.000000
 -0.049476  0.062843  0.000000     16.000000
  0.039581 -0.079981  0.000000     16.000000
 -0.029685  0.062843  0.000000     16.000000
  0.039581 -0.057130  0.000000     16.000000
 -0.029685  0.074269  0.000000     16.000000
  0.049476 -0.074269  0.000000     16.000000
 -0.029685  0.051417  0.000000     16.000000
  0.059371 -0.068556  0.000000     16.000000
 -0.029685  0.085694  0.000000     16.000000
  0.049476  0.028565  0.000000     16.000000
  0.000000  0.057130  0.000000     16.000000
 -0.049476  0.028565  0.000000     16.000000
 -0.049476  0.085694  0.000000     16.000000
  0.019790 -0.068556  0.000000     16.000000
 -0.049476  0.051417  0.000000     16.000000
 


--------------------------------------------------------------------------------------------------------




 Dimension of arrays:
   k-points           NKPTS =     54   k-points in BZ     NKDIM =     54   number of bands    NBANDS=    225
   number of dos      NEDOS =    301   number of ions     NIONS =     41
   non local maximal  LDIM  =      6   non local SUM 2l+1 LMDIM =     18
   total plane-waves  NPLWV = 190512
   max r-space proj   IRMAX =   2088   max aug-charges    IRDMAX=   8786
   dimension x,y,z NGX =    42 NGY =   42 NGZ =  108
   dimension x,y,z NGXF=    84 NGYF=   84 NGZF=  216
   support grid    NGXF=    84 NGYF=   84 NGZF=  216
   ions per type =              36   2   3
 NGX,Y,Z   is equivalent  to a cutoff of   8.29,  8.29,  8.21 a.u.
 NGXF,Y,Z  is equivalent  to a cutoff of  16.58, 16.58, 16.41 a.u.


 I would recommend the setting:
   dimension x,y,z NGX =    41 NGY =   41 NGZ =  107
 SYSTEM =  unknown system                          
 POSCAR =  Pt  C  H                                

 Startparameter for this run:
   NWRITE =      2    write-flag & timer
   PREC   = normal    normal or accurate (medium, high low for compatibility)
   ISTART =      0    job   : 0-new  1-cont  2-samecut
   ICHARG =      2    charge: 1-file 2-atom 10-const
   ISPIN  =      1    spin polarized calculation?
   LNONCOLLINEAR =      F non collinear calculations
   LSORBIT =      F    spin-orbit coupling
   INIWAV =      1    electr: 0-lowe 1-rand  2-diag
   LASPH  =      F    aspherical Exc in radial PAW
   METAGGA=      F    non-selfconsistent MetaGGA calc.

 Electronic Relaxation 1
   ENCUT  =  400.0 eV  29.40 Ry    5.42 a.u.  13.73 13.73 35.67*2*pi/ulx,y,z
   ENINI  =  400.0     initial cutoff
   ENAUG  =  644.9 eV  augmentation charge cutoff
   NELM   =     60;   NELMIN=  4; NELMDL= -4     # of ELM steps 
   EDIFF  = 0.1E-05   stopping-criterion for ELM
   LREAL  =      T    real-space projection
   NLSPLINE    = F    spline interpolate recip. space projectors
   LCOMPAT=      F    compatible to vasp.4.4
   GGA_COMPAT  = T    GGA compatible to vasp.4.4-vasp.4.6
   LMAXPAW     = -100 max onsite density
   LMAXMIX     =    2 max onsite mixed and CHGCAR
   VOSKOWN=      0    Vosko Wilk Nusair interpolation
   ROPT   =   -0.00050  -0.00050  -0.00050
 Ionic relaxation
   EDIFFG = 0.1E-04   stopping-criterion for IOM
   NSW    =      0    number of steps for IOM
   NBLOCK =      1;   KBLOCK =      1    inner block; outer block 
   IBRION =     -1    ionic relax: 0-MD 1-quasi-New 2-CG
   NFREE  =      0    steps in history (QN), initial steepest desc. (CG)
   ISIF   =      2    stress and relaxation
   IWAVPR =     10    prediction:  0-non 1-charg 2-wave 3-comb
   ISYM   =      2    0-nonsym 1-usesym 2-fastsym
   LCORR  =      T    Harris-Foulkes like correction to forces

   POTIM  = 0.5000    time-step for ionic-motion
   TEIN   =    0.0    initial temperature
   TEBEG  =    0.0;   TEEND  =   0.0 temperature during run
   SMASS  =  -3.00    Nose mass-parameter (am)
   estimated Nose-frequenzy (Omega)   =  0.10E-29 period in steps =****** mass=  -0.162E-26a.u.
   SCALEE = 1.0000    scale energy and forces
   NPACO  =    256;   APACO  = 16.0  distance and # of slots for P.C.
   PSTRESS=    0.0 pullay stress

  Mass of Ions in am
   POMASS = 195.08 12.01  1.00
  Ionic Valenz
   ZVAL   =  10.00  4.00  1.00
  Atomic Wigner-Seitz radii
   RWIGS  =  -1.00 -1.00 -1.00
  virtual crystal weights 
   VCA    =   1.00  1.00  1.00
   NELECT =     371.0000    total number of electrons
   NUPDOWN=      -1.0000    fix difference up-down

 DOS related values:
   EMIN   =  10.00;   EMAX   =-10.00  energy-range for DOS
   EFERMI =   0.00
   ISMEAR =    -1;   SIGMA  =   0.10  broadening in eV -4-tet -1-fermi 0-gaus

 Electronic relaxation 2 (details)
   IALGO  =     68    algorithm
   LDIAG  =      T    sub-space diagonalisation (order eigenvalues)
   LSUBROT=      F    optimize rotation matrix (better conditioning)
   TURBO    =      0    0=normal 1=particle mesh
   IRESTART =      0    0=no restart 2=restart with 2 vectors
   NREBOOT  =      0    no. of reboots
   NMIN     =      0    reboot dimension
   EREF     =   0.00    reference energy to select bands
   IMIX   =      4    mixing-type and parameters
     AMIX     =   0.40;   BMIX     =  1.00
     AMIX_MAG =   1.60;   BMIX_MAG =  1.00
     AMIN     =   0.10
     WC   =   100.;   INIMIX=   1;  MIXPRE=   1;  MAXMIX= -45

 Intra band minimization:
   WEIMIN = 0.0000     energy-eigenvalue tresh-hold
   EBREAK =  0.11E-08  absolut break condition
   DEPER  =   0.30     relativ break condition  

   TIME   =   0.40     timestep for ELM

  volume/ion in A,a.u.               =      32.77       221.16
  Fermi-wavevector in a.u.,A,eV,Ry     =   1.066024  2.014494 15.461772  1.136408
  Thomas-Fermi vector in A             =   2.201595
 
 Write flags
   LWAVE  =      F    write WAVECAR
   LCHARG =      F    write CHGCAR
   LVTOT  =      F    write LOCPOT, total local potential
   LVHAR  =      F    write LOCPOT, Hartree potential only
   LELF   =      F    write electronic localiz. function (ELF)
   LORBIT =      0    0 simple, 1 ext, 2 COOP (PROOUT)


 Dipole corrections
   LMONO  =      F    monopole corrections only (constant potential shift)
   LDIPOL =      F    correct potential (dipole corrections)
   IDIPOL =      0    1-x, 2-y, 3-z, 4-all directions 
   EPSILON=  1.0000000 bulk dielectric constant

 Exchange correlation treatment:
   GGA     =    PE    GGA type
   LEXCH   =     8    internal setting for exchange type
   VOSKOWN=      0    Vosko Wilk Nusair interpolation
   LHFCALC =     F    Hartree Fock is set to
   LHFONE  =     F    Hartree Fock one center treatment
   AEXX    =    0.0000 exact exchange contribution

 Linear response parameters
   LEPSILON=     F    determine dielectric tensor
   LRPA    =     F    only Hartree local field effects (RPA)
   LNABLA  =     F    use nabla operator in PAW spheres
   LVEL    =     F    velocity operator in full k-point grid
   LINTERFAST=   F  fast interpolation
   KINTER  =     0    interpolate to denser k-point grid
   CSHIFT  =0.1000    complex shift for real part using Kramers Kronig
   OMEGAMAX=  -1.0    maximum frequency
   DEG_THRESHOLD= 0.2000000E-02 threshold for treating states as degnerate
   RTIME   =    0.100 relaxation time in fs

 Orbital magnetization related:
   ORBITALMAG=     F  switch on orbital magnetization
   LCHIMAG   =     F  perturbation theory with respect to B field
   DQ        =  0.001000  dq finite difference perturbation B field



--------------------------------------------------------------------------------------------------------


 Static calculation
 charge density and potential will be updated during run
 non-spin polarized calculation
 RMM-DIIS sequential band-by-band and
  variant of blocked Davidson during initial phase
 perform sub-space diagonalisation
    before iterative eigenvector-optimisation
 modified Broyden-mixing scheme, WC =      100.0
 initial mixing is a Kerker type mixing with AMIX =  0.4000 and BMIX =      1.0000
 Hartree-type preconditioning will be used
 using additional bands           39
 real space projection scheme for non local part
 use partial core corrections
 calculate Harris-corrections to forces 
   (improved forces if not selfconsistent)
 use gradient corrections 
 use of overlap-Matrix (Vanderbilt PP)
 Fermi-smearing in eV        SIGMA  =   0.10


--------------------------------------------------------------------------------------------------------


  energy-cutoff  :      400.00
  volume of cell :     1343.68
      direct lattice vectors                 reciprocal lattice vectors
     8.421641764  0.000000000  0.000000000     0.118741693 -0.068555548  0.000000000
     4.210820882  7.293355709  0.000000000     0.000000000  0.137111097  0.000000000
     0.000000000  0.000000000 21.876241706     0.000000000  0.000000000  0.045711691

  length of vectors
     8.421641764  8.421641764 21.876241706     0.137111097  0.137111097  0.045711691


 
 k-points in units of 2pi/SCALE and weight: KPOINTS created by Atomic Simulation Env
   0.00989514  0.00571296  0.00000000       0.019
   0.00000000  0.01142592  0.00000000       0.019
  -0.00989514  0.00571296  0.00000000       0.019
   0.02968542 -0.00571296  0.00000000       0.019
   0.01979028  0.02285185  0.00000000       0.019
  -0.00989514  0.02856481  0.00000000       0.019
   0.01979028 -0.02285185  0.00000000       0.019
  -0.00989514 -0.02856481  0.00000000       0.019
  -0.02968542 -0.00571296  0.00000000       0.019
   0.04947571 -0.01713889  0.00000000       0.019
   0.03958056  0.03427777  0.00000000       0.019
  -0.00989514  0.05141666  0.00000000       0.019
   0.03958056 -0.03427777  0.00000000       0.019
  -0.00989514 -0.05141666  0.00000000       0.019
  -0.04947571 -0.01713889  0.00000000       0.019
  -0.04947571  0.03999074  0.00000000       0.019
   0.05937085 -0.09140740  0.00000000       0.019
  -0.00989514  0.07426851  0.00000000       0.019
   0.05937085 -0.04570370  0.00000000       0.019
  -0.00989514  0.06284259  0.00000000       0.019
   0.04947571  0.03999074  0.00000000       0.019
  -0.02968542  0.02856481  0.00000000       0.019
  -0.03958056 -0.01142592  0.00000000       0.019
  -0.00989514 -0.03999074  0.00000000       0.019
  -0.03958056  0.01142592  0.00000000       0.019
  -0.00989514  0.03999074  0.00000000       0.019
   0.02968542  0.02856481  0.00000000       0.019
  -0.00989514  0.01713889  0.00000000       0.019
  -0.01979028  0.00000000  0.00000000       0.019
  -0.00989514 -0.01713889  0.00000000       0.019
   0.02968542  0.01713889  0.00000000       0.019
   0.00000000  0.03427777  0.00000000       0.019
  -0.02968542  0.01713889  0.00000000       0.019
   0.04947571  0.00571296  0.00000000       0.019
   0.01979028  0.04570370  0.00000000       0.019
  -0.02968542  0.03999074  0.00000000       0.019
   0.01979028 -0.04570370  0.00000000       0.019
  -0.02968542 -0.03999074  0.00000000       0.019
  -0.04947571  0.00571296  0.00000000       0.019
  -0.04947571  0.06284259  0.00000000       0.019
   0.03958056 -0.07998147  0.00000000       0.019
  -0.02968542  0.06284259  0.00000000       0.019
   0.03958056 -0.05712962  0.00000000       0.019
  -0.02968542  0.07426851  0.00000000       0.019
   0.04947571 -0.07426851  0.00000000       0.019
  -0.02968542  0.05141666  0.00000000       0.019
   0.05937085 -0.06855555  0.00000000       0.019
  -0.02968542  0.08569444  0.00000000       0.019
   0.04947571  0.02856481  0.00000000       0.019
   0.00000000  0.05712962  0.00000000       0.019
  -0.04947571  0.02856481  0.00000000       0.019
  -0.04947571  0.08569444  0.00000000       0.019
   0.01979028 -0.06855555  0.00000000       0.019
  -0.04947571  0.05141666  0.00000000       0.019
 
 k-points in reciprocal lattice and weights: KPOINTS created by Atomic Simulation Env
   0.08333333  0.08333333  0.00000000       0.019
   0.00000000  0.08333333  0.00000000       0.019
  -0.08333333  0.00000000  0.00000000       0.019
   0.25000000  0.08333333  0.00000000       0.019
   0.16666667  0.25000000  0.00000000       0.019
  -0.08333333  0.16666667  0.00000000       0.019
   0.16666667 -0.08333333  0.00000000       0.019
  -0.08333333 -0.25000000  0.00000000       0.019
  -0.25000000 -0.16666667  0.00000000       0.019
   0.41666667  0.08333333  0.00000000       0.019
   0.33333333  0.41666667  0.00000000       0.019
  -0.08333333  0.33333333  0.00000000       0.019
   0.33333333 -0.08333333  0.00000000       0.019
  -0.08333333 -0.41666667  0.00000000       0.019
  -0.41666667 -0.33333333  0.00000000       0.019
  -0.41666667  0.08333333  0.00000000       0.019
   0.50000000 -0.41666667  0.00000000       0.019
  -0.08333333  0.50000000  0.00000000       0.019
   0.50000000 -0.08333333  0.00000000       0.019
  -0.08333333  0.41666667  0.00000000       0.019
   0.41666667  0.50000000  0.00000000       0.019
  -0.25000000  0.08333333  0.00000000       0.019
  -0.33333333 -0.25000000  0.00000000       0.019
  -0.08333333 -0.33333333  0.00000000       0.019
  -0.33333333 -0.08333333  0.00000000       0.019
  -0.08333333  0.25000000  0.00000000       0.019
   0.25000000  0.33333333  0.00000000       0.019
  -0.08333333  0.08333333  0.00000000       0.019
  -0.16666667 -0.08333333  0.00000000       0.019
  -0.08333333 -0.16666667  0.00000000       0.019
   0.25000000  0.25000000  0.00000000       0.019
   0.00000000  0.25000000  0.00000000       0.019
  -0.25000000  0.00000000  0.00000000       0.019
   0.41666667  0.25000000  0.00000000       0.019
   0.16666667  0.41666667  0.00000000       0.019
  -0.25000000  0.16666667  0.00000000       0.019
   0.16666667 -0.25000000  0.00000000       0.019
  -0.25000000 -0.41666667  0.00000000       0.019
  -0.41666667 -0.16666667  0.00000000       0.019
  -0.41666667  0.25000000  0.00000000       0.019
   0.33333333 -0.41666667  0.00000000       0.019
  -0.25000000  0.33333333  0.00000000       0.019
   0.33333333 -0.25000000  0.00000000       0.019
  -0.25000000  0.41666667  0.00000000       0.019
   0.41666667 -0.33333333  0.00000000       0.019
  -0.25000000  0.25000000  0.00000000       0.019
   0.50000000 -0.25000000  0.00000000       0.019
  -0.25000000  0.50000000  0.00000000       0.019
   0.41666667  0.41666667  0.00000000       0.019
   0.00000000  0.41666667  0.00000000       0.019
  -0.41666667 -0.00000000  0.00000000       0.019
  -0.41666667  0.41666667  0.00000000       0.019
   0.16666667 -0.41666667  0.00000000       0.019
  -0.41666667  0.16666667  0.00000000       0.019
 
 position of ions in fractional coordinates (direct lattice) 
   0.00000000  0.00000000  0.34283768
   0.33333333  0.00000000  0.34283768
   0.66666667  0.00000000  0.34283768
   0.00000000  0.33333333  0.34283768
   0.33333333  0.33333333  0.34283768
   0.66666667  0.33333333  0.34283768
   0.00000000  0.66666667  0.34283768
   0.33333333  0.66666667  0.34283768
   0.66666667  0.66666667  0.34283768
   0.11111111  0.11111111  0.44761256
   0.44444444  0.11111111  0.44761256
   0.77777778  0.11111111  0.44761256
   0.11111111  0.44444444  0.44761256
   0.44444444  0.44444444  0.44761256
   0.77777778  0.44444444  0.44761256
   0.11111111  0.77777778  0.44761256
   0.44444444  0.77777778  0.44761256
   0.77777778  0.77777778  0.44761256
   0.88495693  0.22522187  0.55203879
   0.22142843  0.22508370  0.55204766
   0.55316765  0.22504588  0.55228202
   0.88732204  0.55715353  0.55098682
   0.22156970  0.55690302  0.55232248
   0.55311842  0.55702508  0.55228514
   0.88737411  0.89103991  0.55098513
   0.22130356  0.88901819  0.55213548
   0.55341960  0.89089348  0.55101330
   0.99622335  0.00444926  0.65642153
   0.32961233  0.00450581  0.65643461
   0.66457578  0.00034614  0.65615278
   0.99626747  0.33770696  0.65642370
   0.32684417  0.33590312  0.66279513
   0.66737072  0.33519004  0.66256045
   0.99219393  0.67310349  0.65610779
   0.32719979  0.67593348  0.66275721
   0.66505305  0.67263577  0.65616044
   0.44073605  0.44906727  0.71499572
   0.44117200  0.44887069  0.78320827
   0.29980087  0.52466216  0.80082555
   0.50692803  0.30738149  0.80071518
   0.51705811  0.51453485  0.80072640
 
 position of ions in cartesian coordinates  (Angst):
   0.00000000  0.00000000  7.50000000
   2.80721392  0.00000000  7.50000000
   5.61442784  0.00000000  7.50000000
   1.40360696  2.43111857  7.50000000
   4.21082088  2.43111857  7.50000000
   7.01803480  2.43111857  7.50000000
   2.80721392  4.86223714  7.50000000
   5.61442784  4.86223714  7.50000000
   8.42164176  4.86223714  7.50000000
   1.40360696  0.81037286  9.79208057
   4.21082088  0.81037286  9.79208057
   7.01803480  0.81037286  9.79208057
   2.80721392  3.24149143  9.79208057
   5.61442784  3.24149143  9.79208057
   8.42164176  3.24149143  9.79208057
   4.21082088  5.67261000  9.79208057
   7.01803480  5.67261000  9.79208057
   9.82524872  5.67261000  9.79208057
   8.40115914  1.64262319 12.07653389
   2.81257809  1.64161549 12.07672806
   5.60620765  1.64133966 12.08185500
   9.81878206  4.06351891 12.05352081
   4.21099951  4.06169185 12.08274017
   7.00369802  4.06258204 12.08192322
  11.22515630  6.49867104 12.05348378
   5.60723564  6.48392588 12.07864922
   8.41209451  6.49760302 12.05410011
   8.40857120  0.03245001 14.36003600
   2.79485014  0.03286244 14.36032210
   5.59827666  0.00252454 14.35415689
   9.81223121  2.46301695 14.36008349
   4.16699241  2.44986093 14.49946650
   7.03178236  2.44466022 14.49433263
  11.19022004  4.90918315 14.35317252
   5.60179423  4.92982329 14.49863685
   8.43318732  4.90577196 14.35432444
   5.60266300  3.27520733 15.64141927
   5.60550665  3.27377364 17.13365342
   4.73407391  3.82654779 17.51905339
   5.56349471  2.24184257 17.51663880
   6.52109221  3.75268567 17.51688426
 


--------------------------------------------------------------------------------------------------------


 k-point  1 :   0.0833 0.0833 0.0000  plane waves:   24413
 k-point  2 :   0.0000 0.0833 0.0000  plane waves:   24413
 k-point  3 :  -0.0833 0.0000 0.0000  plane waves:   24413
 k-point  4 :   0.2500 0.0833 0.0000  plane waves:   24407
 k-point  5 :   0.1667 0.2500 0.0000  plane waves:   24407
 k-point  6 :  -0.0833 0.1667 0.0000  plane waves:   24407
 k-point  7 :   0.1667-0.0833 0.0000  plane waves:   24407
 k-point  8 :  -0.0833-0.2500 0.0000  plane waves:   24407
 k-point  9 :  -0.2500-0.1667 0.0000  plane waves:   24407
 k-point 10 :   0.4167 0.0833 0.0000  plane waves:   24416
 k-point 11 :   0.3333 0.4167 0.0000  plane waves:   24416
 k-point 12 :  -0.0833 0.3333 0.0000  plane waves:   24416
 k-point 13 :   0.3333-0.0833 0.0000  plane waves:   24416
 k-point 14 :  -0.0833-0.4167 0.0000  plane waves:   24416
 k-point 15 :  -0.4167-0.3333 0.0000  plane waves:   24416
 k-point 16 :  -0.4167 0.0833 0.0000  plane waves:   24418
 k-point 17 :   0.5000-0.4167 0.0000  plane waves:   24418
 k-point 18 :  -0.0833 0.5000 0.0000  plane waves:   24418
 k-point 19 :   0.5000-0.0833 0.0000  plane waves:   24418
 k-point 20 :  -0.0833 0.4167 0.0000  plane waves:   24418
 k-point 21 :   0.4167 0.5000 0.0000  plane waves:   24418
 k-point 22 :  -0.2500 0.0833 0.0000  plane waves:   24416
 k-point 23 :  -0.3333-0.2500 0.0000  plane waves:   24416
 k-point 24 :  -0.0833-0.3333 0.0000  plane waves:   24416
 k-point 25 :  -0.3333-0.0833 0.0000  plane waves:   24416
 k-point 26 :  -0.0833 0.2500 0.0000  plane waves:   24416
 k-point 27 :   0.2500 0.3333 0.0000  plane waves:   24416
 k-point 28 :  -0.0833 0.0833 0.0000  plane waves:   24411
 k-point 29 :  -0.1667-0.0833 0.0000  plane waves:   24411
 k-point 30 :  -0.0833-0.1667 0.0000  plane waves:   24411
 k-point 31 :   0.2500 0.2500 0.0000  plane waves:   24440
 k-point 32 :   0.0000 0.2500 0.0000  plane waves:   24440
 k-point 33 :  -0.2500 0.0000 0.0000  plane waves:   24440
 k-point 34 :   0.4167 0.2500 0.0000  plane waves:   24406
 k-point 35 :   0.1667 0.4167 0.0000  plane waves:   24406
 k-point 36 :  -0.2500 0.1667 0.0000  plane waves:   24406
 k-point 37 :   0.1667-0.2500 0.0000  plane waves:   24406
 k-point 38 :  -0.2500-0.4167 0.0000  plane waves:   24406
 k-point 39 :  -0.4167-0.1667 0.0000  plane waves:   24406
 k-point 40 :  -0.4167 0.2500 0.0000  plane waves:   24402
 k-point 41 :   0.3333-0.4167 0.0000  plane waves:   24402
 k-point 42 :  -0.2500 0.3333 0.0000  plane waves:   24402
 k-point 43 :   0.3333-0.2500 0.0000  plane waves:   24402
 k-point 44 :  -0.2500 0.4167 0.0000  plane waves:   24402
 k-point 45 :   0.4167-0.3333 0.0000  plane waves:   24402
 k-point 46 :  -0.2500 0.2500 0.0000  plane waves:   24390
 k-point 47 :   0.5000-0.2500 0.0000  plane waves:   24390
 k-point 48 :  -0.2500 0.5000 0.0000  plane waves:   24390
 k-point 49 :   0.4167 0.4167 0.0000  plane waves:   24430
 k-point 50 :   0.0000 0.4167 0.0000  plane waves:   24430
 k-point 51 :  -0.4167-0.0000 0.0000  plane waves:   24430
 k-point 52 :  -0.4167 0.4167 0.0000  plane waves:   24404
 k-point 53 :   0.1667-0.4167 0.0000  plane waves:   24404
 k-point 54 :  -0.4167 0.1667 0.0000  plane waves:   24404

 maximum and minimum number of plane-waves per node :      6146     6048

 maximum number of plane-waves:     24440
 maximum index in each direction: 
   IXMAX=   14   IYMAX=   14   IZMAX=   35
   IXMIN=  -14   IYMIN=  -14   IZMIN=  -35

 WARNING: aliasing errors must be expected set NGX to  58 to avoid them
 WARNING: aliasing errors must be expected set NGY to  58 to avoid them
 WARNING: aliasing errors must be expected set NGZ to 142 to avoid them
 aliasing errors are usually negligible using standard VASP settings
 and one can safely disregard these warnings

 real space projection operators:
  total allocation   :      10291.46 KBytes
  max/ min on nodes  :       2715.37       2455.14


 parallel 3D FFT for wavefunctions:
    minimum data exchange during FFTs selected (reduces bandwidth)
 parallel 3D FFT for charge:
    minimum data exchange during FFTs selected (reduces bandwidth)


 total amount of memory used by VASP on root node   292236. kBytes
========================================================================

   base      :      30000. kBytes
   nonlr-proj:       4775. kBytes
   fftplans  :       4497. kBytes
   grid      :       7849. kBytes
   one-center:        171. kBytes
   wavefun   :     244944. kBytes
 
     INWAV:  cpu time    0.0000: real time    0.0000
 Broyden mixing: mesh for mixing (old mesh)
   NGX = 27   NGY = 27   NGZ = 71
  (NGX  = 84   NGY  = 84   NGZ  =216)
  gives a total of  51759 points

 initial charge density was supplied:
 charge density of overlapping atoms calculated
 number of electron     371.0000000 magnetization 
 keeping initial charge density in first step


--------------------------------------------------------------------------------------------------------


 Maximum index for non-local projection operator          593
 Maximum index for augmentation-charges          871 (set IRDMAX)


--------------------------------------------------------------------------------------------------------


 First call to EWALD:  gamma=   0.161
 Maximum number of real-space cells 4x 4x 2
 Maximum number of reciprocal cells 2x 2x 5

 FEWALD executed in parallel
    FEWALD:  cpu time    0.0050: real time    0.0049


----------------------------------------- Iteration    1(   1)  ---------------------------------------


    POTLOK:  cpu time    0.4809: real time    0.4812
    SETDIJ:  cpu time    0.0090: real time    0.0088
     EDDAV:  cpu time  255.9051: real time  257.1619
       DOS:  cpu time    0.0030: real time    0.0036
    --------------------------------------------
      LOOP:  cpu time  256.3990: real time  257.6704

 eigenvalue-minimisations  : 24350
 total energy-change (2. order) : 0.2194253E+04  (-0.1467278E+05)
 number of electron     371.0000000 magnetization 
 augmentation part      371.0000000 magnetization 

 Free energy of the ion-electron system (eV)
  ---------------------------------------------------
  alpha Z        PSCENC =       958.22283780
  Ewald energy   TEWEN  =     91113.90556670
  -Hartree energ DENC   =   -119556.20178321
  -exchange      EXHF   =         0.00000000
  -V(xc)+E(xc)   XCENC  =       154.45961156
  PAW double counting   =     25283.89345048   -24266.86223937
  entropy T*S    EENTRO =        -0.56118836
  eigenvalues    EBANDS =      1927.67616813
  atomic energy  EATOM  =     26579.72061084
  Solvation  Ediel_sol  =         0.00000000
  ---------------------------------------------------
  free energy    TOTEN  =      2194.25303457 eV

  energy without entropy =     2194.81422294  energy(sigma->0) =     2194.53362875


--------------------------------------------------------------------------------------------------------




----------------------------------------- Iteration    1(   2)  ---------------------------------------


     EDDAV:  cpu time  293.8903: real time  297.2651
       DOS:  cpu time    0.0030: real time    0.0035
    --------------------------------------------
      LOOP:  cpu time  293.8993: real time  297.3610

 eigenvalue-minimisations  : 28390
 total energy-change (2. order) :-0.2285932E+04  (-0.2117022E+04)
 number of electron     371.0000000 magnetization 
 augmentation part      371.0000000 magnetization 

 Free energy of the ion-electron system (eV)
  ---------------------------------------------------
  alpha Z        PSCENC =       958.22283780
  Ewald energy   TEWEN  =     91113.90556670
  -Hartree energ DENC   =   -119556.20178321
  -exchange      EXHF   =         0.00000000
  -V(xc)+E(xc)   XCENC  =       154.45961156
  PAW double counting   =     25283.89345048   -24266.86223937
  entropy T*S    EENTRO =        -1.08942161
  eigenvalues    EBANDS =      -357.72718241
  atomic energy  EATOM  =     26579.72061084
  Solvation  Ediel_sol  =         0.00000000
  ---------------------------------------------------
  free energy    TOTEN  =       -91.67854921 eV

  energy without entropy =      -90.58912760  energy(sigma->0) =      -91.13383840


--------------------------------------------------------------------------------------------------------




----------------------------------------- Iteration    1(   3)  ---------------------------------------


     EDDAV:  cpu time  299.2415: real time  299.9940
       DOS:  cpu time    0.0030: real time    0.0029
    --------------------------------------------
      LOOP:  cpu time  299.2535: real time  300.0285

 eigenvalue-minimisations  : 29330
 total energy-change (2. order) :-0.1586226E+03  (-0.1440797E+03)
 number of electron     371.0000000 magnetization 
 augmentation part      371.0000000 magnetization 

 Free energy of the ion-electron system (eV)
  ---------------------------------------------------
  alpha Z        PSCENC =       958.22283780
  Ewald energy   TEWEN  =     91113.90556670
  -Hartree energ DENC   =   -119556.20178321
  -exchange      EXHF   =         0.00000000
  -V(xc)+E(xc)   XCENC  =       154.45961156
  PAW double counting   =     25283.89345048   -24266.86223937
  entropy T*S    EENTRO =        -1.87564782
  eigenvalues    EBANDS =      -515.56358653
  atomic energy  EATOM  =     26579.72061084
  Solvation  Ediel_sol  =         0.00000000
  ---------------------------------------------------
  free energy    TOTEN  =      -250.30117954 eV

  energy without entropy =     -248.42553173  energy(sigma->0) =     -249.36335563


--------------------------------------------------------------------------------------------------------




----------------------------------------- Iteration    1(   4)  ---------------------------------------


     EDDAV:  cpu time  308.7351: real time  311.5742
       DOS:  cpu time    0.0030: real time    0.0029
    CHARGE:  cpu time    2.0567: real time    2.2034
    MIXING:  cpu time    0.0030: real time    0.0025
    --------------------------------------------
      LOOP:  cpu time  310.7998: real time  313.8840

 eigenvalue-minimisations  : 30940
 total energy-change (2. order) :-0.6697845E+01  (-0.6498155E+01)
 number of electron     371.0000017 magnetization 
 augmentation part      104.7036524 magnetization 

 Broyden mixing:
  rms(total) = 0.63909E+01    rms(broyden)= 0.63908E+01
  rms(prec ) = 0.65066E+01
  weight for this iteration     100.00

 Free energy of the ion-electron system (eV)
  ---------------------------------------------------
  alpha Z        PSCENC =       958.22283780
  Ewald energy   TEWEN  =     91113.90556670
  -Hartree energ DENC   =   -119556.20178321
  -exchange      EXHF   =         0.00000000
  -V(xc)+E(xc)   XCENC  =       154.45961156
  PAW double counting   =     25283.89345048   -24266.86223937
  entropy T*S    EENTRO =        -1.92619017
  eigenvalues    EBANDS =      -522.21088908
  atomic energy  EATOM  =     26579.72061084
  Solvation  Ediel_sol  =         0.00000000
  ---------------------------------------------------
  free energy    TOTEN  =      -256.99902444 eV

  energy without entropy =     -255.07283427  energy(sigma->0) =     -256.03592935


--------------------------------------------------------------------------------------------------------




----------------------------------------- Iteration    1(   5)  ---------------------------------------


    POTLOK:  cpu time    0.2130: real time    0.2250
    SETDIJ:  cpu time    0.0080: real time    0.0083
    EDDIAG:  cpu time   18.9321: real time   18.9747
  RMM-DIIS:  cpu time   83.8333: real time   84.0395
    ORTHCH:  cpu time    6.8050: real time    6.8719
       DOS:  cpu time    0.0040: real time    0.0037
    CHARGE:  cpu time    2.0037: real time    2.0032
    MIXING:  cpu time    0.0030: real time    0.0028
    --------------------------------------------
      LOOP:  cpu time  111.8020: real time  112.2204

 eigenvalue-minimisations  : 25882
 total energy-change (2. order) : 0.1211592E+02  (-0.5406990E+01)
 number of electron     371.0000040 magnetization 
 augmentation part      111.3551329 magnetization 

 Broyden mixing:
  rms(total) = 0.42953E+01    rms(broyden)= 0.42952E+01
  rms(prec ) = 0.45608E+01
  weight for this iteration     100.00

 eigenvalues of (default mixing * dielectric matrix)
  average eigenvalue GAMMA=   1.3368
  1.3368

 Free energy of the ion-electron system (eV)
  ---------------------------------------------------
  alpha Z        PSCENC =       958.22283780
  Ewald energy   TEWEN  =     91113.90556670
  -Hartree energ DENC   =   -119140.32124554
  -exchange      EXHF   =         0.00000000
  -V(xc)+E(xc)   XCENC  =       146.00322510
  PAW double counting   =     28098.62106532   -27134.62428048
  entropy T*S    EENTRO =        -2.00090896
  eigenvalues    EBANDS =      -864.40997977
  atomic energy  EATOM  =     26579.72061084
  Solvation  Ediel_sol  =         0.00000000
  ---------------------------------------------------
  free energy    TOTEN  =      -244.88310900 eV

  energy without entropy =     -242.88220004  energy(sigma->0) =     -243.88265452


--------------------------------------------------------------------------------------------------------




----------------------------------------- Iteration    1(   6)  ---------------------------------------


    POTLOK:  cpu time    0.3010: real time    0.3015
    SETDIJ:  cpu time    0.0820: real time    0.0822
    EDDIAG:  cpu time   19.3211: real time   19.4733
  RMM-DIIS:  cpu time   80.6957: real time   80.9051
    ORTHCH:  cpu time    6.7230: real time    6.7674
       DOS:  cpu time    0.0040: real time    0.0038
    CHARGE:  cpu time    2.0757: real time    2.0761
    MIXING:  cpu time    0.0040: real time    0.0030
    --------------------------------------------
      LOOP:  cpu time  109.2074: real time  109.6664

 eigenvalue-minimisations  : 25810
 total energy-change (2. order) :-0.4291880E+02  (-0.7576559E+01)
 number of electron     370.9999992 magnetization 
 augmentation part      109.1494150 magnetization 

 Broyden mixing:
  rms(total) = 0.56549E+01    rms(broyden)= 0.56547E+01
  rms(prec ) = 0.69743E+01
  weight for this iteration     100.00

 eigenvalues of (default mixing * dielectric matrix)
  average eigenvalue GAMMA=   1.1165
  1.9533  0.2796

 Free energy of the ion-electron system (eV)
  ---------------------------------------------------
  alpha Z        PSCENC =       958.22283780
  Ewald energy   TEWEN  =     91113.90556670
  -Hartree energ DENC   =   -119451.11312483
  -exchange      EXHF   =         0.00000000
  -V(xc)+E(xc)   XCENC  =       143.85042343
  PAW double counting   =     30170.17850584   -29227.15582304
  entropy T*S    EENTRO =        -1.17358062
  eigenvalues    EBANDS =      -574.23732853
  atomic energy  EATOM  =     26579.72061084
  Solvation  Ediel_sol  =         0.00000000
  ---------------------------------------------------
  free energy    TOTEN  =      -287.80191241 eV

  energy without entropy =     -286.62833178  energy(sigma->0) =     -287.21512210


--------------------------------------------------------------------------------------------------------




----------------------------------------- Iteration    1(   7)  ---------------------------------------


    POTLOK:  cpu time    0.6429: real time    0.8452
    SETDIJ:  cpu time    0.0090: real time    0.0087
    EDDIAG:  cpu time   20.6879: real time   20.9741
  RMM-DIIS:  cpu time   84.0372: real time   84.8801
    ORTHCH:  cpu time    6.9179: real time    6.9667
       DOS:  cpu time    0.0030: real time    0.0037
    CHARGE:  cpu time    2.0427: real time    2.0428
    MIXING:  cpu time    0.0030: real time    0.0031
    --------------------------------------------
      LOOP:  cpu time  114.3446: real time  115.8038

 eigenvalue-minimisations  : 25232
 total energy-change (2. order) : 0.4120800E+02  (-0.3023974E+01)
 number of electron     371.0000005 magnetization 
 augmentation part      112.3434427 magnetization 

 Broyden mixing:
  rms(total) = 0.24900E+01    rms(broyden)= 0.24899E+01
  rms(prec ) = 0.31684E+01
  weight for this iteration     100.00

 eigenvalues of (default mixing * dielectric matrix)
  average eigenvalue GAMMA=   0.9320
  2.0448  0.4317  0.3196

 Free energy of the ion-electron system (eV)
  ---------------------------------------------------
  alpha Z        PSCENC =       958.22283780
  Ewald energy   TEWEN  =     91113.90556670
  -Hartree energ DENC   =   -119205.15338580
  -exchange      EXHF   =         0.00000000
  -V(xc)+E(xc)   XCENC  =       142.60887834
  PAW double counting   =     31829.74129748   -30907.65103016
  entropy T*S    EENTRO =        -1.66846574
  eigenvalues    EBANDS =      -756.32021700
  atomic energy  EATOM  =     26579.72061084
  Solvation  Ediel_sol  =         0.00000000
  ---------------------------------------------------
  free energy    TOTEN  =      -246.59390755 eV

  energy without entropy =     -244.92544180  energy(sigma->0) =     -245.75967467


--------------------------------------------------------------------------------------------------------




----------------------------------------- Iteration    1(   8)  ---------------------------------------


    POTLOK:  cpu time    0.3589: real time    0.4505
    SETDIJ:  cpu time    0.0090: real time    0.0085
    EDDIAG:  cpu time   20.1659: real time   20.1858
  RMM-DIIS:  cpu time   81.4286: real time   81.9916
    ORTHCH:  cpu time    6.8140: real time    6.8134
       DOS:  cpu time    0.0040: real time    0.0038
    CHARGE:  cpu time    2.1137: real time    2.1138
    MIXING:  cpu time    0.0050: real time    0.0035
    --------------------------------------------
      LOOP:  cpu time  110.9011: real time  111.6612

 eigenvalue-minimisations  : 25786
 total energy-change (2. order) :-0.6357352E+01  (-0.1792768E+01)
 number of electron     371.0000014 magnetization 
 augmentation part      112.3994329 magnetization 

 Broyden mixing:
  rms(total) = 0.33104E+01    rms(broyden)= 0.33102E+01
  rms(prec ) = 0.50444E+01
  weight for this iteration     100.00

 eigenvalues of (default mixing * dielectric matrix)
  average eigenvalue GAMMA=   0.8717
  2.1914  0.8348  0.2950  0.1658

 Free energy of the ion-electron system (eV)
  ---------------------------------------------------
  alpha Z        PSCENC =       958.22283780
  Ewald energy   TEWEN  =     91113.90556670
  -Hartree energ DENC   =   -119174.11885657
  -exchange      EXHF   =         0.00000000
  -V(xc)+E(xc)   XCENC  =       142.92104782
  PAW double counting   =     32138.11733904   -31218.36237483
  entropy T*S    EENTRO =        -1.32500927
  eigenvalues    EBANDS =      -792.03242106
  atomic energy  EATOM  =     26579.72061084
  Solvation  Ediel_sol  =         0.00000000
  ---------------------------------------------------
  free energy    TOTEN  =      -252.95125954 eV

  energy without entropy =     -251.62625026  energy(sigma->0) =     -252.28875490


--------------------------------------------------------------------------------------------------------




----------------------------------------- Iteration    1(   9)  ---------------------------------------


    POTLOK:  cpu time    0.0640: real time    0.0645
    SETDIJ:  cpu time    0.0090: real time    0.0084
    EDDIAG:  cpu time   19.7740: real time   19.9531
  RMM-DIIS:  cpu time   84.4702: real time   85.9184
    ORTHCH:  cpu time    6.7370: real time    6.7471
       DOS:  cpu time    0.0050: real time    0.0042
    CHARGE:  cpu time    2.1107: real time    2.1107
    MIXING:  cpu time    0.0040: real time    0.0038
    --------------------------------------------
      LOOP:  cpu time  113.1738: real time  114.8245

 eigenvalue-minimisations  : 26007
 total energy-change (2. order) : 0.4751976E+01  (-0.1038346E+01)
 number of electron     371.0000043 magnetization 
 augmentation part      112.1644290 magnetization 

 Broyden mixing:
  rms(total) = 0.27616E+01    rms(broyden)= 0.27614E+01
  rms(prec ) = 0.37328E+01
  weight for this iteration     100.00

 eigenvalues of (default mixing * dielectric matrix)
  average eigenvalue GAMMA=   0.7962
  2.3352  0.9916  0.2648  0.2648  0.1244

 Free energy of the ion-electron system (eV)
  ---------------------------------------------------
  alpha Z        PSCENC =       958.22283780
  Ewald energy   TEWEN  =     91113.90556670
  -Hartree energ DENC   =   -119196.60471446
  -exchange      EXHF   =         0.00000000
  -V(xc)+E(xc)   XCENC  =       143.22178666
  PAW double counting   =     32421.84253451   -31503.61064102
  entropy T*S    EENTRO =        -1.82727208
  eigenvalues    EBANDS =      -763.06999260
  atomic energy  EATOM  =     26579.72061084
  Solvation  Ediel_sol  =         0.00000000
  ---------------------------------------------------
  free energy    TOTEN  =      -248.19928365 eV

  energy without entropy =     -246.37201157  energy(sigma->0) =     -247.28564761


--------------------------------------------------------------------------------------------------------




----------------------------------------- Iteration    1(  10)  ---------------------------------------


    POTLOK:  cpu time    0.0630: real time    0.0637
    SETDIJ:  cpu time    0.0090: real time    0.0086
    EDDIAG:  cpu time   19.8700: real time   19.8932
  RMM-DIIS:  cpu time   76.8893: real time   77.4587
    ORTHCH:  cpu time    6.8360: real time    6.8829
       DOS:  cpu time    0.0040: real time    0.0035
    CHARGE:  cpu time    2.0667: real time    2.0661
    MIXING:  cpu time    0.0030: real time    0.0035
    --------------------------------------------
      LOOP:  cpu time  105.7419: real time  106.4152

 eigenvalue-minimisations  : 25123
 total energy-change (2. order) : 0.8155276E+01  (-0.3324216E+00)
 number of electron     371.0000026 magnetization 
 augmentation part      112.3081464 magnetization 

 Broyden mixing:
  rms(total) = 0.98966E+00    rms(broyden)= 0.98959E+00
  rms(prec ) = 0.11173E+01
  weight for this iteration     100.00

 eigenvalues of (default mixing * dielectric matrix)
  average eigenvalue GAMMA=   0.7251
  2.1995  0.9921  0.3832  0.3276  0.3276  0.1206

 Free energy of the ion-electron system (eV)
  ---------------------------------------------------
  alpha Z        PSCENC =       958.22283780
  Ewald energy   TEWEN  =     91113.90556670
  -Hartree energ DENC   =   -119210.00984751
  -exchange      EXHF   =         0.00000000
  -V(xc)+E(xc)   XCENC  =       143.32950701
  PAW double counting   =     32691.27847115   -31775.36610483
  entropy T*S    EENTRO =        -1.99625476
  eigenvalues    EBANDS =      -739.12879374
  atomic energy  EATOM  =     26579.72061084
  Solvation  Ediel_sol  =         0.00000000
  ---------------------------------------------------
  free energy    TOTEN  =      -240.04400734 eV

  energy without entropy =     -238.04775258  energy(sigma->0) =     -239.04587996


--------------------------------------------------------------------------------------------------------




----------------------------------------- Iteration    1(  11)  ---------------------------------------


    POTLOK:  cpu time    1.0848: real time    1.0844
    SETDIJ:  cpu time    0.0090: real time    0.0087
    EDDIAG:  cpu time   20.1759: real time   20.2705
  RMM-DIIS:  cpu time   81.9565: real time   82.0683
    ORTHCH:  cpu time    6.7740: real time    6.8306
       DOS:  cpu time    0.0040: real time    0.0039
    CHARGE:  cpu time    2.0907: real time    2.0898
    MIXING:  cpu time    0.0040: real time    0.0040
    --------------------------------------------
      LOOP:  cpu time  112.1000: real time  112.3797

 eigenvalue-minimisations  : 25546
 total energy-change (2. order) : 0.4321382E+00  (-0.1380576E+00)
 number of electron     371.0000027 magnetization 
 augmentation part      112.2444120 magnetization 

 Broyden mixing:
  rms(total) = 0.72877E+00    rms(broyden)= 0.72874E+00
  rms(prec ) = 0.84818E+00
  weight for this iteration     100.00

 eigenvalues of (default mixing * dielectric matrix)
  average eigenvalue GAMMA=   0.6852
  2.1068  0.9669  0.5936  0.4693  0.2700  0.2700  0.1202

 Free energy of the ion-electron system (eV)
  ---------------------------------------------------
  alpha Z        PSCENC =       958.22283780
  Ewald energy   TEWEN  =     91113.90556670
  -Hartree energ DENC   =   -119211.22755361
  -exchange      EXHF   =         0.00000000
  -V(xc)+E(xc)   XCENC  =       143.52731787
  PAW double counting   =     32575.28861634   -31657.82821065
  entropy T*S    EENTRO =        -2.06300747
  eigenvalues    EBANDS =      -739.15804698
  atomic energy  EATOM  =     26579.72061084
  Solvation  Ediel_sol  =         0.00000000
  ---------------------------------------------------
  free energy    TOTEN  =      -239.61186916 eV

  energy without entropy =     -237.54886169  energy(sigma->0) =     -238.58036543


--------------------------------------------------------------------------------------------------------




----------------------------------------- Iteration    1(  12)  ---------------------------------------


    POTLOK:  cpu time    0.4069: real time    0.4563
    SETDIJ:  cpu time    0.0080: real time    0.0085
    EDDIAG:  cpu time   19.6820: real time   19.6979
  RMM-DIIS:  cpu time   83.3163: real time   84.4475
    ORTHCH:  cpu time    6.7060: real time    6.7469
       DOS:  cpu time    0.0030: real time    0.0032
    CHARGE:  cpu time    2.0527: real time    2.0516
    MIXING:  cpu time    0.0040: real time    0.0037
    --------------------------------------------
      LOOP:  cpu time  112.1799: real time  113.5116

 eigenvalue-minimisations  : 25893
 total energy-change (2. order) : 0.3178313E+00  (-0.5079069E-01)
 number of electron     371.0000026 magnetization 
 augmentation part      112.1766789 magnetization 

 Broyden mixing:
  rms(total) = 0.45110E+00    rms(broyden)= 0.45107E+00
  rms(prec ) = 0.54272E+00
  weight for this iteration     100.00

 eigenvalues of (default mixing * dielectric matrix)
  average eigenvalue GAMMA=   0.6785
  2.1436  0.8992  0.7185  0.7185  0.2922  0.2922  0.1203  0.2437

 Free energy of the ion-electron system (eV)
  ---------------------------------------------------
  alpha Z        PSCENC =       958.22283780
  Ewald energy   TEWEN  =     91113.90556670
  -Hartree energ DENC   =   -119218.06792608
  -exchange      EXHF   =         0.00000000
  -V(xc)+E(xc)   XCENC  =       143.64487369
  PAW double counting   =     32505.61735606   -31587.27706352
  entropy T*S    EENTRO =        -2.07059826
  eigenvalues    EBANDS =      -732.98969507
  atomic energy  EATOM  =     26579.72061084
  Solvation  Ediel_sol  =         0.00000000
  ---------------------------------------------------
  free energy    TOTEN  =      -239.29403784 eV

  energy without entropy =     -237.22343958  energy(sigma->0) =     -238.25873871


--------------------------------------------------------------------------------------------------------




----------------------------------------- Iteration    1(  13)  ---------------------------------------


    POTLOK:  cpu time    1.6048: real time    1.7480
    SETDIJ:  cpu time    0.1520: real time    0.1620
    EDDIAG:  cpu time   30.4534: real time   30.8561
  RMM-DIIS:  cpu time   81.8766: real time   83.0243
    ORTHCH:  cpu time    6.9469: real time    6.9885
       DOS:  cpu time    0.0040: real time    0.0042
    CHARGE:  cpu time    2.0187: real time    2.0181
    MIXING:  cpu time    0.0050: real time    0.0045
    --------------------------------------------
      LOOP:  cpu time  123.0613: real time  124.8952

 eigenvalue-minimisations  : 25993
 total energy-change (2. order) : 0.1215585E+00  (-0.1938239E-01)
 number of electron     371.0000021 magnetization 
 augmentation part      112.1444096 magnetization 

 Broyden mixing:
  rms(total) = 0.21794E+00    rms(broyden)= 0.21792E+00
  rms(prec ) = 0.24278E+00
  weight for this iteration     100.00

 eigenvalues of (default mixing * dielectric matrix)
  average eigenvalue GAMMA=   0.7169
  2.1563  1.0649  1.0649  0.8400  0.3923  0.1203  0.2857  0.2857  0.2421

 Free energy of the ion-electron system (eV)
  ---------------------------------------------------
  alpha Z        PSCENC =       958.22283780
  Ewald energy   TEWEN  =     91113.90556670
  -Hartree energ DENC   =   -119229.56497447
  -exchange      EXHF   =         0.00000000
  -V(xc)+E(xc)   XCENC  =       143.64495363
  PAW double counting   =     32518.89412910   -31600.76196541
  entropy T*S    EENTRO =        -2.06412120
  eigenvalues    EBANDS =      -721.16951629
  atomic energy  EATOM  =     26579.72061084
  Solvation  Ediel_sol  =         0.00000000
  ---------------------------------------------------
  free energy    TOTEN  =      -239.17247930 eV

  energy without entropy =     -237.10835810  energy(sigma->0) =     -238.14041870


--------------------------------------------------------------------------------------------------------




----------------------------------------- Iteration    1(  14)  ---------------------------------------


    POTLOK:  cpu time    0.1500: real time    0.1902
    SETDIJ:  cpu time    0.0080: real time    0.0085
    EDDIAG:  cpu time   20.4929: real time   20.6759
  RMM-DIIS:  cpu time   84.6181: real time   85.9773
    ORTHCH:  cpu time    6.8150: real time    6.9030
       DOS:  cpu time    0.0030: real time    0.0036
    CHARGE:  cpu time    2.0127: real time    2.0223
    MIXING:  cpu time    0.0040: real time    0.0045
    --------------------------------------------
      LOOP:  cpu time  114.1047: real time  115.8946

 eigenvalue-minimisations  : 26097
 total energy-change (2. order) : 0.8368500E-02  (-0.8825817E-02)
 number of electron     371.0000020 magnetization 
 augmentation part      112.1045727 magnetization 

 Broyden mixing:
  rms(total) = 0.17940E+00    rms(broyden)= 0.17939E+00
  rms(prec ) = 0.22408E+00
  weight for this iteration     100.00

 eigenvalues of (default mixing * dielectric matrix)
  average eigenvalue GAMMA=   0.7526
  1.7805  1.7805  1.3271  0.6816  0.6816  0.1203  0.2938  0.2938  0.3303  0.2367

 Free energy of the ion-electron system (eV)
  ---------------------------------------------------
  alpha Z        PSCENC =       958.22283780
  Ewald energy   TEWEN  =     91113.90556670
  -Hartree energ DENC   =   -119243.41489562
  -exchange      EXHF   =         0.00000000
  -V(xc)+E(xc)   XCENC  =       143.69444214
  PAW double counting   =     32515.31569330   -31597.18133274
  entropy T*S    EENTRO =        -2.05461857
  eigenvalues    EBANDS =      -707.37241465
  atomic energy  EATOM  =     26579.72061084
  Solvation  Ediel_sol  =         0.00000000
  ---------------------------------------------------
  free energy    TOTEN  =      -239.16411080 eV

  energy without entropy =     -237.10949223  energy(sigma->0) =     -238.13680152


--------------------------------------------------------------------------------------------------------




----------------------------------------- Iteration    1(  15)  ---------------------------------------


    POTLOK:  cpu time    0.2500: real time    0.3552
    SETDIJ:  cpu time    0.0080: real time    0.0086
    EDDIAG:  cpu time   20.4019: real time   20.4187
  RMM-DIIS:  cpu time   89.1884: real time   89.6554
    ORTHCH:  cpu time    6.8900: real time    6.8972
       DOS:  cpu time    0.0040: real time    0.0041
    CHARGE:  cpu time    2.0237: real time    2.0228
    MIXING:  cpu time    0.0050: real time    0.0051
    --------------------------------------------
      LOOP:  cpu time  118.7729: real time  119.4028

 eigenvalue-minimisations  : 25727
 total energy-change (2. order) : 0.2594551E-01  (-0.1979338E-02)
 number of electron     371.0000021 magnetization 
 augmentation part      112.0672016 magnetization 

 Broyden mixing:
  rms(total) = 0.10110E+00    rms(broyden)= 0.10110E+00
  rms(prec ) = 0.12004E+00
  weight for this iteration     100.00

 eigenvalues of (default mixing * dielectric matrix)
  average eigenvalue GAMMA=   0.7901
  2.1724  2.1724  1.2100  0.7079  0.7079  0.4579  0.1203  0.2910  0.2910  0.3224
  0.2384

 Free energy of the ion-electron system (eV)
  ---------------------------------------------------
  alpha Z        PSCENC =       958.22283780
  Ewald energy   TEWEN  =     91113.90556670
  -Hartree energ DENC   =   -119251.99255917
  -exchange      EXHF   =         0.00000000
  -V(xc)+E(xc)   XCENC  =       143.80237338
  PAW double counting   =     32471.34670565   -31552.63456391
  entropy T*S    EENTRO =        -2.06492499
  eigenvalues    EBANDS =      -699.44421159
  atomic energy  EATOM  =     26579.72061084
  Solvation  Ediel_sol  =         0.00000000
  ---------------------------------------------------
  free energy    TOTEN  =      -239.13816529 eV

  energy without entropy =     -237.07324029  energy(sigma->0) =     -238.10570279


--------------------------------------------------------------------------------------------------------




----------------------------------------- Iteration    1(  16)  ---------------------------------------


    POTLOK:  cpu time    0.8049: real time    0.8060
    SETDIJ:  cpu time    0.0430: real time    0.0435
    EDDIAG:  cpu time   20.4409: real time   20.4373
  RMM-DIIS:  cpu time   87.1388: real time   87.2031
    ORTHCH:  cpu time    6.8390: real time    6.8660
       DOS:  cpu time    0.0040: real time    0.0037
    CHARGE:  cpu time    2.1317: real time    2.1324
    MIXING:  cpu time    0.0050: real time    0.0053
    --------------------------------------------
      LOOP:  cpu time  117.4102: real time  117.5332

 eigenvalue-minimisations  : 25610
 total energy-change (2. order) : 0.5910583E-02  (-0.1252532E-02)
 number of electron     371.0000022 magnetization 
 augmentation part      112.0567468 magnetization 

 Broyden mixing:
  rms(total) = 0.76096E-01    rms(broyden)= 0.76092E-01
  rms(prec ) = 0.93898E-01
  weight for this iteration     100.00

 eigenvalues of (default mixing * dielectric matrix)
  average eigenvalue GAMMA=   0.7971
  2.2508  2.2508  1.3132  0.7488  0.7488  0.6851  0.1203  0.2923  0.2923  0.3427
  0.2383  0.2820

 Free energy of the ion-electron system (eV)
  ---------------------------------------------------
  alpha Z        PSCENC =       958.22283780
  Ewald energy   TEWEN  =     91113.90556670
  -Hartree energ DENC   =   -119258.01309560
  -exchange      EXHF   =         0.00000000
  -V(xc)+E(xc)   XCENC  =       143.86953831
  PAW double counting   =     32456.58759949   -31537.66285691
  entropy T*S    EENTRO =        -2.07128685
  eigenvalues    EBANDS =      -693.69116849
  atomic energy  EATOM  =     26579.72061084
  Solvation  Ediel_sol  =         0.00000000
  ---------------------------------------------------
  free energy    TOTEN  =      -239.13225470 eV

[...]
    165       0.8629      1.99576
    166       0.9038      1.99362
    167       0.9429      1.99057
    168       0.9654      1.98821
    169       1.0126      1.98117
    170       1.0717      1.96625
    171       1.1256      1.94280
    172       1.1384      1.93528
    173       1.1704      1.91196
    174       1.2152      1.86545
    175       1.2327      1.84186
    176       1.2629      1.79184
    177       1.2970      1.71926
    178       1.3595      1.53251
    179       1.3822      1.44613
    180       1.4064      1.34422
    181       1.4156      1.30306
    182       1.4372      1.20210
    183       1.4577      1.10220
    184       1.4739      1.02142
    185       1.4816      0.98274
    186       1.5931      0.48133
    187       1.6291      0.36224
    188       1.6445      0.31871
    189       1.7071      0.18401
    190       1.7118      0.17634
    191       1.7448      0.12999
    192       1.7555      0.11757
    193       1.7801      0.09309
    194       1.8149      0.06664
    195       1.8384      0.05307
    196       2.3844      0.00023
    197       2.4951      0.00008
    198       2.7983      0.00000
    199       2.9198      0.00000
    200       2.9520      0.00000
    201       2.9795      0.00000
    202       3.0840      0.00000
    203       3.2130      0.00000
    204       3.3720      0.00000
    205       3.5539      0.00000
    206       3.6230      0.00000
    207       3.8000      0.00000
    208       3.8926      0.00000
    209       4.0340      0.00000
    210       4.2383      0.00000
    211       4.2994      0.00000
    212       4.4089      0.00000
    213       4.5038      0.00000
    214       4.5743      0.00000
    215       4.6426      0.00000
    216       4.7417      0.00000
    217       4.9139      0.00000
    218       5.0805      0.00000
    219       5.1570      0.00000
    220       5.4558      0.00000
    221       5.9742      0.00000
    222       6.0920      0.00000
    223       6.1173      0.00000
    224       6.2878      0.00000
    225       6.6432      0.00000


--------------------------------------------------------------------------------------------------------


 soft charge-density along one line, spin component           1
         0         1         2         3         4         5         6         7         8         9
 total charge-density along one line
 
 pseudopotential strength for first ion, spin component:           1
 -6.019   0.000  -0.000  -0.011   0.000  -6.135   0.000  -0.000
  0.000  -5.917   0.000   0.000  -0.012   0.000  -6.036   0.000
 -0.000   0.000  -5.913   0.000  -0.000  -0.000   0.000  -6.032
 -0.011   0.000   0.000  -5.917   0.000  -0.011   0.000   0.000
  0.000  -0.012  -0.000   0.000  -6.019   0.000  -0.012  -0.000
 -6.135   0.000  -0.000  -0.011   0.000  -6.235   0.000  -0.000
  0.000  -6.036   0.000   0.000  -0.012   0.000  -6.138   0.000
 -0.000   0.000  -6.032   0.000  -0.000  -0.000   0.000  -6.135
 -0.011   0.000   0.000  -6.036   0.000  -0.011   0.000   0.000
  0.000  -0.012  -0.000   0.000  -6.135   0.000  -0.011  -0.000
 -0.000  -0.000  -0.031  -0.000  -0.000  -0.000  -0.000  -0.031
 -0.000  -0.000  -0.046  -0.000  -0.000  -0.000  -0.000  -0.046
  0.000  -0.004  -0.000   0.000   0.000   0.000  -0.004  -0.000
  0.000   0.000  -0.009   0.000   0.000   0.000   0.000  -0.008
  0.001   0.000  -0.000  -0.004   0.000   0.001   0.000  -0.000
  0.000  -0.003  -0.000   0.000   0.000   0.000  -0.003  -0.000
  0.000   0.000  -0.009   0.000   0.000   0.000   0.000  -0.009
  0.001   0.000  -0.000  -0.003   0.000   0.001   0.000  -0.000
 total augmentation occupancy for first ion, spin component:           1
  3.166   0.003  -0.000  -0.211   0.007  -2.030  -0.002   0.000   0.036  -0.004  -0.001  -0.000  -0.001  -0.000  -0.051   0.000
  0.003   3.884   0.011   0.003  -0.216  -0.002  -2.074  -0.007  -0.002   0.047   0.005  -0.001  -0.255  -0.003  -0.001   0.012
 -0.000   0.011   4.121   0.001   0.001   0.000  -0.008  -2.536  -0.000  -0.001   0.754  -0.118  -0.003  -0.305  -0.005  -0.000
 -0.211   0.003   0.001   3.897   0.002   0.043  -0.002  -0.000  -2.082  -0.001   0.006  -0.001  -0.001  -0.001  -0.257  -0.000
  0.007  -0.216   0.001   0.002   3.159  -0.004   0.040  -0.001  -0.001  -2.026  -0.001  -0.000  -0.049  -0.001  -0.001   0.003
 -2.030  -0.002   0.000   0.043  -0.004   2.539   0.001  -0.000   0.082   0.003   0.000  -0.000   0.000   0.000   0.050   0.000
 -0.002  -2.074  -0.008  -0.002   0.040   0.001   2.089   0.005   0.001   0.079  -0.004   0.000   0.244   0.001   0.001  -0.016
  0.000  -0.007  -2.536  -0.000  -0.001  -0.000   0.005   2.713  -0.000   0.001  -0.656   0.084   0.002   0.363   0.003  -0.000
  0.036  -0.002  -0.000  -2.082  -0.001   0.082   0.001  -0.000   2.095   0.000  -0.005   0.001   0.000   0.000   0.245   0.000
 -0.004   0.047  -0.001  -0.001  -2.026   0.003   0.079   0.001   0.000   2.536   0.000  -0.000   0.049   0.000   0.000  -0.003
 -0.001   0.005   0.754   0.006  -0.001   0.000  -0.004  -0.656  -0.005   0.000   2.234  -0.444  -0.001   0.186  -0.001   0.000
 -0.000  -0.001  -0.118  -0.001  -0.000  -0.000   0.000   0.084   0.001  -0.000  -0.444   0.109  -0.000  -0.065  -0.000  -0.000
 -0.001  -0.255  -0.003  -0.001  -0.049   0.000   0.244   0.002   0.000   0.049  -0.001  -0.000   0.260   0.000  -0.000  -0.014
 -0.000  -0.003  -0.305  -0.001  -0.001   0.000   0.001   0.363   0.000   0.000   0.186  -0.065   0.000   0.147   0.001  -0.000
 -0.051  -0.001  -0.005  -0.257  -0.001   0.050   0.001   0.003   0.245   0.000  -0.001  -0.000  -0.000   0.001   0.260   0.000
  0.000   0.012  -0.000  -0.000   0.003   0.000  -0.016  -0.000   0.000  -0.003   0.000  -0.000  -0.014  -0.000   0.000   0.001
 -0.000   0.000   0.003   0.000  -0.000   0.000   0.000  -0.019   0.000   0.000  -0.018   0.005  -0.000  -0.009  -0.000  -0.000
  0.003  -0.000  -0.000   0.012   0.000  -0.003   0.000  -0.000  -0.016   0.000   0.000  -0.000   0.000   0.000  -0.014  -0.000


------------------------ aborting loop because EDIFF is reached ----------------------------------------


    CHARGE:  cpu time    2.0337: real time    2.0338
    FORLOC:  cpu time    0.0180: real time    0.0174
    FORNL :  cpu time   15.0927: real time   15.1292
    STRESS:  cpu time   45.6401: real time   45.7600
    FORCOR:  cpu time    0.0820: real time    0.0819
    FORHAR:  cpu time    0.0350: real time    0.0350
    MIXING:  cpu time    0.0310: real time    0.0308
    OFIELD:  cpu time    0.0000: real time    0.0000

  FORCE on cell =-STRESS in cart. coord.  units (eV):
  Direction    XX          YY          ZZ          XY          YZ          ZX
  --------------------------------------------------------------------------------------
  Alpha Z   958.22284   958.22284   958.22284
  Ewald  110860.07454110878.00381************     4.01637    -9.08945     4.37149
  Hartree117413.10235117418.85273************     1.41879    -2.44162     1.33859
  E(xc)   -1630.75348 -1630.67370 -1640.52267     0.01982    -0.04199     0.02136
  Local  ************************239314.74122    -4.84242     9.65528    -4.85539
  n-local   144.15565   145.00995   130.95995     0.17538    -0.68207     0.27491
  augment  1879.45616  1878.38346  1929.63421    -0.24778     0.79658    -0.36174
  Kinetic  5337.33729  5335.15097  5474.83777    -0.50124     1.42892    -0.68357
  Fock        0.00000     0.00000     0.00000     0.00000     0.00000     0.00000
  -------------------------------------------------------------------------------------
  Total     -35.98819   -35.74811    -0.44556     0.03891    -0.37434     0.10564
  in kB     -42.91150   -42.62524    -0.53128     0.04639    -0.44635     0.12596
  external pressure =      -28.69 kB  Pullay stress =        0.00 kB


 VOLUME and BASIS-vectors are now :
 -----------------------------------------------------------------------------
  energy-cutoff  :      400.00
  volume of cell :     1343.68
      direct lattice vectors                 reciprocal lattice vectors
     8.421641764  0.000000000  0.000000000     0.118741693 -0.068555548  0.000000000
     4.210820882  7.293355709  0.000000000     0.000000000  0.137111097  0.000000000
     0.000000000  0.000000000 21.876241706     0.000000000  0.000000000  0.045711691

  length of vectors
     8.421641764  8.421641764 21.876241706     0.137111097  0.137111097  0.045711691


 FORCES acting on ions
    electron-ion (+dipol)            ewald-force                    non-local-force                 convergence-correction
 -----------------------------------------------------------------------------------------------
   -.395E+00 -.219E+00 0.232E+04   0.351E+00 0.179E+00 -.232E+04   0.267E-01 0.238E-01 -.117E+01   -.236E-03 0.944E-04 -.159E-02
   0.405E+00 -.223E+00 0.232E+04   -.350E+00 0.183E+00 -.232E+04   -.326E-01 0.229E-01 -.117E+01   -.721E-04 0.464E-03 -.158E-02
   0.713E-02 -.353E+00 0.233E+04   -.227E-02 0.343E+00 -.232E+04   -.224E-02 -.364E-02 -.120E+01   0.308E-03 0.123E-03 -.147E-02
   -.320E-04 0.437E+00 0.232E+04   0.481E-02 -.387E+00 -.232E+04   -.266E-02 -.306E-01 -.117E+01   0.165E-03 -.460E-04 -.167E-02
   0.259E-01 -.168E-01 0.232E+04   -.138E-01 0.110E-01 -.232E+04   -.859E-02 0.131E-02 -.121E+01   -.143E-03 0.509E-04 -.144E-02
   -.979E-02 -.136E-01 0.232E+04   0.792E-02 0.754E-02 -.232E+04   0.377E-02 0.166E-02 -.121E+01   -.224E-04 -.401E-03 -.171E-02
   -.313E+00 0.168E+00 0.233E+04   0.316E+00 -.179E+00 -.232E+04   -.936E-02 0.901E-02 -.120E+01   0.613E-04 -.434E-04 -.154E-02
   0.116E-01 -.368E-01 0.232E+04   -.610E-02 0.202E-01 -.232E+04   -.243E-02 0.112E-01 -.121E+01   -.475E-03 -.117E-03 -.166E-02
   0.317E+00 0.162E+00 0.233E+04   -.311E+00 -.174E+00 -.232E+04   0.489E-02 0.908E-02 -.120E+01   0.413E-03 -.125E-03 -.179E-02
   0.103E+00 -.120E+00 0.823E+03   -.100E+00 0.111E+00 -.823E+03   -.112E-01 0.227E-01 -.995E-01   0.106E-03 0.129E-03 -.254E-02
   0.820E+00 -.246E+01 0.829E+03   -.935E+00 0.244E+01 -.828E+03   0.625E-01 0.689E-01 -.305E+00   0.969E-04 0.350E-03 -.236E-02
   -.579E+00 -.252E+01 0.829E+03   0.710E+00 0.249E+01 -.828E+03   -.945E-01 0.724E-01 -.309E+00   -.203E-03 -.212E-03 -.271E-02
   -.159E+01 0.145E+01 0.828E+03   0.152E+01 -.157E+01 -.828E+03   0.584E-01 0.833E-01 -.301E+00   0.303E-03 -.102E-03 -.261E-02
   0.135E+00 -.286E+00 0.828E+03   -.128E+00 0.272E+00 -.827E+03   -.148E-01 0.295E-01 -.288E+00   -.548E-03 -.394E-03 -.256E-02
   0.172E+01 0.147E+01 0.828E+03   -.164E+01 -.159E+01 -.828E+03   -.872E-01 0.833E-01 -.305E+00   0.245E-03 -.309E-03 -.275E-02
   -.235E+01 0.449E+00 0.828E+03   0.242E+01 -.352E+00 -.828E+03   -.202E-01 -.594E-01 -.293E+00   -.376E-03 -.460E-04 -.262E-02
   0.256E+01 0.332E+00 0.828E+03   -.261E+01 -.236E+00 -.828E+03   -.111E-01 -.569E-01 -.297E+00   -.676E-04 0.344E-03 -.241E-02
   0.945E-01 -.209E+00 0.832E+03   -.876E-01 0.190E+00 -.832E+03   -.154E-01 0.357E-01 -.422E+00   0.444E-03 0.240E-03 -.261E-02
   -.447E+01 0.223E+01 -.687E+03   0.413E+01 -.204E+01 0.687E+03   0.343E+00 -.200E+00 0.709E-02   0.107E-03 -.232E-03 -.106E-02
   0.420E+01 0.211E+01 -.688E+03   -.388E+01 -.192E+01 0.688E+03   -.324E+00 -.193E+00 0.119E-01   0.303E-03 0.494E-04 -.116E-02
   0.837E-02 -.248E+00 -.690E+03   -.169E-01 0.313E+00 0.689E+03   0.736E-02 -.642E-01 0.668E+00   -.419E-03 -.848E-04 -.115E-02
   0.108E-01 0.345E+01 -.673E+03   -.107E-01 -.354E+01 0.673E+03   0.133E-02 0.850E-01 0.471E+00   0.464E-03 -.261E-04 -.100E-02
   0.174E-01 -.850E-01 -.691E+03   0.442E-01 0.565E-01 0.690E+03   -.590E-01 0.250E-01 0.690E+00   -.176E-03 -.255E-03 -.108E-02
   -.300E-01 0.169E-01 -.690E+03   -.357E-01 -.381E-01 0.689E+03   0.690E-01 0.203E-01 0.686E+00   -.288E-03 -.395E-04 -.807E-03
   -.276E+01 -.161E+01 -.674E+03   0.285E+01 0.165E+01 0.673E+03   -.814E-01 -.508E-01 0.470E+00   -.606E-04 -.376E-04 -.122E-02
   -.391E-01 -.448E+01 -.688E+03   0.353E-01 0.412E+01 0.688E+03   0.647E-03 0.356E+00 0.515E-02   -.384E-04 0.147E-03 -.103E-02
   0.288E+01 -.159E+01 -.674E+03   -.296E+01 0.164E+01 0.673E+03   0.842E-01 -.476E-01 0.468E+00   0.970E-04 0.478E-03 -.104E-02
   -.481E+01 -.282E+01 -.219E+04   0.482E+01 0.286E+01 0.219E+04   -.569E-02 -.376E-01 0.106E+01   0.245E-04 -.834E-04 -.148E-03
   0.510E+01 -.272E+01 -.219E+04   -.512E+01 0.276E+01 0.219E+04   0.157E-01 -.457E-01 0.106E+01   0.103E-03 0.142E-03 -.270E-03
   -.606E+00 0.253E+02 -.218E+04   0.577E+00 -.257E+02 0.218E+04   0.299E-01 0.408E+00 0.110E+01   -.125E-03 0.105E-03 -.240E-03
   0.246E+00 0.644E+01 -.219E+04   -.247E+00 -.641E+01 0.219E+04   -.115E-02 -.275E-01 0.105E+01   0.259E-03 0.230E-04 -.144E-03
   0.108E+03 0.630E+02 -.213E+04   -.107E+03 -.626E+02 0.213E+04   -.648E+00 -.434E+00 -.222E+01   -.261E-04 0.475E-04 -.202E-03
   -.108E+03 0.629E+02 -.213E+04   0.107E+03 -.625E+02 0.213E+04   0.666E+00 -.399E+00 -.222E+01   -.209E-03 0.438E-04 0.560E-04
   0.217E+02 -.128E+02 -.218E+04   -.221E+02 0.130E+02 0.218E+04   0.405E+00 -.258E+00 0.110E+01   0.124E-03 -.172E-03 -.156E-03
   -.477E-01 -.125E+03 -.213E+04   0.533E-01 0.124E+03 0.213E+04   -.216E-02 0.737E+00 -.223E+01   -.120E-03 -.143E-03 0.287E-04
   -.219E+02 -.126E+02 -.218E+04   0.223E+02 0.128E+02 0.218E+04   -.379E+00 -.250E+00 0.110E+01   0.192E-04 0.550E-04 -.122E-04
   -.190E+00 0.685E-01 -.100E+04   0.188E+00 -.391E-01 0.101E+04   0.380E-02 -.335E-01 -.887E+00   -.600E-04 0.102E-04 0.254E-03
   -.269E+00 0.990E-01 -.976E+03   0.279E+00 -.992E-01 0.978E+03   0.328E-02 0.483E-02 -.201E+01   -.177E-04 0.462E-05 0.341E-03
   0.439E+02 -.278E+02 -.239E+03   -.483E+02 0.306E+02 0.241E+03   0.436E+01 -.277E+01 -.196E+01   0.126E-04 -.100E-04 0.869E-04
   0.206E+01 0.521E+02 -.239E+03   -.227E+01 -.572E+02 0.241E+03   0.211E+00 0.517E+01 -.194E+01   -.285E-05 0.189E-04 0.898E-04
   -.461E+02 -.241E+02 -.239E+03   0.507E+02 0.265E+02 0.241E+03   -.458E+01 -.239E+01 -.194E+01   -.175E-04 -.677E-05 0.906E-04
 -----------------------------------------------------------------------------------------------
   -.424E-02 0.800E-01 0.188E+02   0.284E-13 -.107E-12 0.315E-11   -.300E-01 -.736E-01 -.188E+02   -.501E-04 0.327E-04 -.474E-01
 
 
 POSITION                                       TOTAL-FORCE (eV/Angst)
 -----------------------------------------------------------------------------------
      0.00000      0.00000      7.50000        -0.016739     -0.016250     -0.046988
      2.80721      0.00000      7.50000         0.023618     -0.016649     -0.046870
      5.61443      0.00000      7.50000         0.003771     -0.013594     -0.067094
      1.40361      2.43112      7.50000         0.003117      0.019481     -0.048394
      4.21082      2.43112      7.50000         0.004138     -0.004667     -0.049406
      7.01803      2.43112      7.50000         0.002707     -0.004976     -0.049686
      2.80721      4.86224      7.50000        -0.004747     -0.001873     -0.068584
      5.61443      4.86224      7.50000         0.003417     -0.005749     -0.049196
      8.42164      4.86224      7.50000         0.011708     -0.002608     -0.068444
      1.40361      0.81037      9.79208        -0.007045      0.014192     -0.193265
      4.21082      0.81037      9.79208        -0.051921      0.045394      0.068138
      7.01803      0.81037      9.79208         0.037337      0.046722      0.066100
      2.80721      3.24149      9.79208        -0.003195     -0.037884      0.074345
      5.61443      3.24149      9.79208        -0.007724      0.014980      0.214416
      8.42164      3.24149      9.79208        -0.010567     -0.037419      0.071715
      4.21082      5.67261      9.79208         0.044387      0.037723      0.076695
      7.01803      5.67261      9.79208        -0.058542      0.039978      0.075678
      9.82525      5.67261      9.79208        -0.007223      0.017094      0.015553
      8.40116      1.64262     12.07653         0.007596     -0.005599      0.008771
      2.81258      1.64162     12.07673        -0.001397     -0.003359      0.006289
      5.60621      1.64134     12.08185        -0.000787      0.000618     -0.002444
      9.81878      4.06352     12.05352         0.002769     -0.005324      0.006849
      4.21100      4.06169     12.08274         0.003319     -0.003918      0.002339
      7.00370      4.06258     12.08192         0.003951     -0.001030      0.003744
     11.22516      6.49867     12.05348         0.003677     -0.005757      0.007679
      5.60724      6.48393     12.07865        -0.002398     -0.001836      0.007962
      8.41209      6.49760     12.05410         0.001082     -0.003945      0.005910
      8.40857      0.03245     14.36004         0.002589     -0.006870     -0.003303
      2.79485      0.03286     14.36032        -0.002527     -0.005128     -0.003034
      5.59828      0.00252     14.35416         0.001945     -0.009746      0.000346
      9.81223      2.46302     14.36008        -0.000580     -0.005892     -0.006020
      4.16699      2.44986     14.49947        -0.005308     -0.008736     -0.005630
      7.03178      2.44466     14.49433        -0.000390     -0.005228     -0.002950
     11.19022      4.90918     14.35317         0.002922     -0.004364      0.001916
      5.60179      4.92982     14.49864         0.004138     -0.004910     -0.003278
      8.43319      4.90577     14.35432         0.004366     -0.002788      0.000405
      5.60266      3.27521     15.64142         0.003192     -0.004313      0.006578
      5.60551      3.27377     17.13365         0.014576      0.004458      0.002125
      4.73407      3.82655     17.51905         0.000844     -0.005255     -0.000449
      5.56349      2.24184     17.51664         0.003595      0.000249      0.000871
      6.52109      3.75269     17.51688        -0.013670     -0.005225     -0.009392
 -----------------------------------------------------------------------------------
    total drift:                               -0.034252      0.006422     -0.045796


--------------------------------------------------------------------------------------------------------



  FREE ENERGIE OF THE ION-ELECTRON SYSTEM (eV)
  ---------------------------------------------------
  free  energy   TOTEN  =      -239.12838381 eV

  energy  without entropy=     -237.05772273  energy(sigma->0) =     -238.09305327
 


--------------------------------------------------------------------------------------------------------


    POTLOK:  cpu time    0.1290: real time    0.1291


--------------------------------------------------------------------------------------------------------


 stress matrix after NEB project (eV)
    -35.98819      0.03891      0.10564
      0.03891    -35.74811     -0.37434
      0.10564     -0.37434     -0.44556
  FORCES: max atom, RMS     0.017389    0.006652
  FORCE total and by dimension    0.042591    0.014576
  Stress total and by dimension   50.730477   35.988187
     LOOP+:  cpu time 4796.0309: real time 4838.5630
    4ORBIT:  cpu time    0.0000: real time    0.0000

 total amount of memory used by VASP on root node   292236. kBytes
========================================================================

   base      :      30000. kBytes
   nonlr-proj:       4775. kBytes
   fftplans  :       4497. kBytes
   grid      :       7849. kBytes
   one-center:        171. kBytes
   wavefun   :     244944. kBytes
 
  
  
 General timing and accounting informations for this job:
 ========================================================
  
                  Total CPU time used (sec):     4823.857
                            User time (sec):     3709.236
                          System time (sec):     1114.622
                         Elapsed time (sec):     4866.773
  
                   Maximum memory used (kb):      355096.
                   Average memory used (kb):           0.
  
                          Minor page faults:     13293150
                          Major page faults:           10
                 Voluntary context switches:        25898
