unknown system                          
           1
     8.421642    0.000000    0.000000
     4.210821    7.293356    0.000000
     0.000000    0.000000   21.876242
   Pt   C    H 
  36   2   3
Direct configuration=     1
   0.00000000  0.00000000  0.34283768
   0.33333333  0.00000000  0.34283768
   0.66666667  0.00000000  0.34283768
   0.00000000  0.33333333  0.34283768
   0.33333333  0.33333333  0.34283768
   0.66666667  0.33333333  0.34283768
   0.00000000  0.66666667  0.34283768
   0.33333333  0.66666667  0.34283768
   0.66666667  0.66666667  0.34283768
   0.11111111  0.11111111  0.44761256
   0.44444444  0.11111111  0.44761256
   0.77777778  0.11111111  0.44761256
   0.11111111  0.44444444  0.44761256
   0.44444444  0.44444444  0.44761256
   0.77777778  0.44444444  0.44761256
   0.11111111  0.77777778  0.44761256
   0.44444444  0.77777778  0.44761256
   0.77777778  0.77777778  0.44761256
   0.88495693  0.22522187  0.55203879
   0.22142843  0.22508370  0.55204766
   0.55316765  0.22504588  0.55228202
   0.88732204  0.55715353  0.55098682
   0.22156970  0.55690302  0.55232248
   0.55311842  0.55702508  0.55228514
   0.88737411  0.89103991  0.55098513
   0.22130356  0.88901819  0.55213548
   0.55341960  0.89089348  0.55101330
   0.99622335  0.00444926  0.65642153
   0.32961233  0.00450581  0.65643461
   0.66457578  0.00034614  0.65615278
   0.99626747  0.33770696  0.65642370
   0.32684417  0.33590312  0.66279513
   0.66737072  0.33519004  0.66256045
   0.99219393  0.67310349  0.65610779
   0.32719979  0.67593348  0.66275721
   0.66505305  0.67263577  0.65616044
   0.44073605  0.44906727  0.71499572
   0.44117200  0.44887069  0.78320827
   0.29980087  0.52466216  0.80082555
   0.50692803  0.30738149  0.80071518
   0.51705811  0.51453485  0.80072640
