<?xml version="1.0" encoding="ISO-8859-1"?>
<modeling>
 <generator>
  <i name="program" type="string">vasp </i>
  <i name="version" type="string">5.4.1  </i>
  <i name="subversion" type="string">24Jun15 (build Oct 10 2016 12:42:00) complex                          parallel </i>
  <i name="platform" type="string">IFC91_ompi </i>
  <i name="date" type="string">2018 07 05 </i>
  <i name="time" type="string">19:11:11 </i>
 </generator>
 <incar>
  <i type="string" name="PREC">normal</i>
  <i type="string" name="ALGO"> fast</i>
  <i type="int" name="ISPIN">     1</i>
  <i type="int" name="NELMDL">    -4</i>
  <i type="int" name="NELMIN">     4</i>
  <i name="EDIFF">      0.00000100</i>
  <i name="ENCUT">    400.00000000</i>
  <i type="string" name="LREAL"> auto</i>
  <i type="int" name="ISMEAR">    -1</i>
  <i name="SIGMA">      0.10000000</i>
  <i type="logical" name="LWAVE"> F  </i>
  <i type="logical" name="LCHARG"> F  </i>
  <v type="int" name="KPOINT_BSE">    -1     0     0     0</v>
  <i type="string" name="GGA"> PE</i>
 </incar>
 <kpoints>
  <generation param="Monkhorst-Pack">
   <v type="int" name="divisions">       1        1        1 </v>
   <v name="usershift">      0.00000000       0.00000000       0.00000000 </v>
   <v name="genvec1">      1.00000000       0.00000000       0.00000000 </v>
   <v name="genvec2">      0.00000000       1.00000000       0.00000000 </v>
   <v name="genvec3">      0.00000000       0.00000000       1.00000000 </v>
   <v name="shift">      0.00000000       0.00000000       0.00000000 </v>
  </generation>
  <varray name="kpointlist" >
   <v>       0.00000000       0.00000000       0.00000000 </v>
  </varray>
  <varray name="weights" >
   <v>       1.00000000 </v>
  </varray>
 </kpoints>
 <parameters>
  <separator name="general" >
   <i type="string" name="SYSTEM">unknown system</i>
   <i type="logical" name="LCOMPAT"> F  </i>
  </separator>
  <separator name="electronic" >
   <i type="string" name="PREC">normal</i>
   <i name="ENMAX">    400.00000000</i>
   <i name="ENAUG">    400.00000000</i>
   <i name="EDIFF">      0.00000100</i>
   <i type="int" name="IALGO">    68</i>
   <i type="int" name="IWAVPR">    10</i>
   <i type="int" name="NBANDS">     8</i>
   <i name="NELECT">      2.00000000</i>
   <i type="int" name="TURBO">     0</i>
   <i type="int" name="IRESTART">     0</i>
   <i type="int" name="NREBOOT">     0</i>
   <i type="int" name="NMIN">     0</i>
   <i name="EREF">      0.00000000</i>
   <separator name="electronic smearing" >
    <i type="int" name="ISMEAR">    -1</i>
    <i name="SIGMA">      0.10000000</i>
    <i name="KSPACING">      0.50000000</i>
    <i type="logical" name="KGAMMA"> T  </i>
   </separator>
   <separator name="electronic projectors" >
    <i type="logical" name="LREAL"> T  </i>
    <v name="ROPT">     -0.00050000</v>
    <i type="int" name="LMAXPAW">  -100</i>
    <i type="int" name="LMAXMIX">     2</i>
    <i type="logical" name="NLSPLINE"> F  </i>
   </separator>
   <separator name="electronic startup" >
    <i type="int" name="ISTART">     0</i>
    <i type="int" name="ICHARG">     2</i>
    <i type="int" name="INIWAV">     1</i>
   </separator>
   <separator name="electronic spin" >
    <i type="int" name="ISPIN">     1</i>
    <i type="logical" name="LNONCOLLINEAR"> F  </i>
    <v name="MAGMOM">      1.00000000      1.00000000</v>
    <i name="NUPDOWN">     -1.00000000</i>
    <i type="logical" name="LSORBIT"> F  </i>
    <v name="SAXIS">      0.00000000      0.00000000      1.00000000</v>
    <i type="logical" name="LSPIRAL"> F  </i>
    <v name="QSPIRAL">      0.00000000      0.00000000      0.00000000</v>
    <i type="logical" name="LZEROZ"> F  </i>
   </separator>
   <separator name="electronic exchange-correlation" >
    <i type="logical" name="LASPH"> F  </i>
    <i type="logical" name="LMETAGGA"> F  </i>
   </separator>
   <separator name="electronic convergence" >
    <i type="int" name="NELM">    60</i>
    <i type="int" name="NELMDL">    -4</i>
    <i type="int" name="NELMIN">     4</i>
    <i name="ENINI">    400.00000000</i>
    <separator name="electronic convergence detail" >
     <i type="logical" name="LDIAG"> T  </i>
     <i type="logical" name="LSUBROT"> F  </i>
     <i name="WEIMIN">      0.00000000</i>
     <i name="EBREAK">      0.00000003</i>
     <i name="DEPER">      0.30000000</i>
     <i type="int" name="NRMM">     4</i>
     <i name="TIME">      0.40000000</i>
    </separator>
   </separator>
   <separator name="electronic mixer" >
    <i name="AMIX">      0.40000000</i>
    <i name="BMIX">      1.00000000</i>
    <i name="AMIN">      0.10000000</i>
    <i name="AMIX_MAG">      1.60000000</i>
    <i name="BMIX_MAG">      1.00000000</i>
    <separator name="electronic mixer details" >
     <i type="int" name="IMIX">     4</i>
     <i type="logical" name="MIXFIRST"> F  </i>
     <i type="int" name="MAXMIX">   -45</i>
     <i name="WC">    100.00000000</i>
     <i type="int" name="INIMIX">     1</i>
     <i type="int" name="MIXPRE">     1</i>
     <i type="int" name="MREMOVE">     5</i>
    </separator>
   </separator>
   <separator name="electronic dipolcorrection" >
    <i type="logical" name="LDIPOL"> F  </i>
    <i type="logical" name="LMONO"> F  </i>
    <i type="int" name="IDIPOL">     0</i>
    <i name="EPSILON">      1.00000000</i>
    <v name="DIPOL">   -100.00000000   -100.00000000   -100.00000000</v>
    <i name="EFIELD">      0.00000000</i>
   </separator>
  </separator>
  <separator name="grids" >
   <i type="int" name="NGX">    98</i>
   <i type="int" name="NGY">    98</i>
   <i type="int" name="NGZ">    98</i>
   <i type="int" name="NGXF">   196</i>
   <i type="int" name="NGYF">   196</i>
   <i type="int" name="NGZF">   196</i>
   <i type="logical" name="ADDGRID"> F  </i>
  </separator>
  <separator name="ionic" >
   <i type="int" name="NSW">     0</i>
   <i type="int" name="IBRION">    -1</i>
   <i type="int" name="ISIF">     2</i>
   <i name="PSTRESS">      0.00000000</i>
   <i name="EDIFFG">      0.00001000</i>
   <i type="int" name="NFREE">     0</i>
   <i name="POTIM">      0.50000000</i>
   <i name="SMASS">     -3.00000000</i>
   <i name="SCALEE">      1.00000000</i>
  </separator>
  <separator name="ionic md" >
   <i name="TEBEG">      0.00010000</i>
   <i name="TEEND">      0.00010000</i>
   <i type="int" name="NBLOCK">     1</i>
   <i type="int" name="KBLOCK">     1</i>
   <i type="int" name="NPACO">   256</i>
   <i name="APACO">     16.00000000</i>
  </separator>
  <separator name="symmetry" >
   <i type="int" name="ISYM">     2</i>
   <i name="SYMPREC">      0.00001000</i>
  </separator>
  <separator name="dos" >
   <i type="logical" name="LORBIT"> F  </i>
   <v name="RWIGS">     -1.00000000</v>
   <i type="int" name="NEDOS">   301</i>
   <i name="EMIN">     10.00000000</i>
   <i name="EMAX">    -10.00000000</i>
   <i name="EFERMI">      0.00000000</i>
  </separator>
  <separator name="writing" >
   <i type="int" name="NWRITE">     2</i>
   <i type="logical" name="LWAVE"> F  </i>
   <i type="logical" name="LCHARG"> F  </i>
   <i type="logical" name="LPARD"> F  </i>
   <i type="logical" name="LVTOT"> F  </i>
   <i type="logical" name="LVHAR"> F  </i>
   <i type="logical" name="LELF"> F  </i>
   <i type="logical" name="LOPTICS"> F  </i>
   <v name="STM">      0.00000000      0.00000000      0.00000000      0.00000000      0.00000000      0.00000000      0.00000000</v>
  </separator>
  <separator name="performance" >
   <i type="int" name="NPAR">     4</i>
   <i type="int" name="NSIM">     4</i>
   <i type="int" name="NBLK">    -1</i>
   <i type="logical" name="LPLANE"> T  </i>
   <i type="logical" name="LSCALAPACK"> T  </i>
   <i type="logical" name="LSCAAWARE"> F  </i>
   <i type="logical" name="LSCALU"> F  </i>
   <i type="logical" name="LASYNC"> F  </i>
   <i type="logical" name="LORBITALREAL"> F  </i>
  </separator>
  <separator name="miscellaneous" >
   <i type="int" name="IDIOT">     3</i>
   <i type="logical" name="LMUSIC"> F  </i>
   <v name="POMASS">      1.00000000</v>
   <v name="DARWINR">      0.00000000</v>
   <v name="DARWINV">      1.00000000</v>
   <i type="logical" name="LCORR"> T  </i>
  </separator>
  <i type="logical" name="GGA_COMPAT"> T  </i>
  <i type="logical" name="LBERRY"> F  </i>
  <i type="int" name="ICORELEVEL">     0</i>
  <i type="logical" name="LDAU"> F  </i>
  <i type="int" name="I_CONSTRAINED_M">     0</i>
  <separator name="electronic exchange-correlation" >
   <i type="string" name="GGA">PE</i>
   <i type="int" name="VOSKOWN">     0</i>
   <i type="logical" name="LHFCALC"> F  </i>
   <i type="string" name="PRECFOCK"></i>
   <i type="logical" name="LSYMGRAD"> F  </i>
   <i type="logical" name="LHFONE"> F  </i>
   <i type="logical" name="LRHFCALC"> F  </i>
   <i type="logical" name="LTHOMAS"> F  </i>
   <i type="logical" name="LMODELHF"> F  </i>
   <i name="ENCUT4O">     -1.00000000</i>
   <i type="int" name="EXXOEP">     0</i>
   <i type="int" name="FOURORBIT">     0</i>
   <i name="AEXX">      0.00000000</i>
   <i name="HFALPHA">      0.00000000</i>
   <i name="MCALPHA">      0.00000000</i>
   <i name="ALDAX">      1.00000000</i>
   <i name="AGGAX">      1.00000000</i>
   <i name="ALDAC">      1.00000000</i>
   <i name="AGGAC">      1.00000000</i>
   <i type="int" name="NKREDX">     1</i>
   <i type="int" name="NKREDY">     1</i>
   <i type="int" name="NKREDZ">     1</i>
   <i type="logical" name="SHIFTRED"> F  </i>
   <i type="logical" name="ODDONLY"> F  </i>
   <i type="logical" name="EVENONLY"> F  </i>
   <i type="int" name="LMAXFOCK">     0</i>
   <i type="int" name="NMAXFOCKAE">     0</i>
   <i type="logical" name="LFOCKAEDFT"> F  </i>
   <i name="HFSCREEN">      0.00000000</i>
   <i name="HFSCREENC">      0.00000000</i>
   <i type="int" name="NBANDSGWLOW">     0</i>
  </separator>
  <separator name="vdW DFT" >
   <i type="logical" name="LUSE_VDW"> F  </i>
   <i name="Zab_VDW">     -0.84910000</i>
   <i name="PARAM1">      0.12340000</i>
   <i name="PARAM2">      1.00000000</i>
   <i name="PARAM3">      0.00000000</i>
  </separator>
  <separator name="model GW" >
   <i type="int" name="MODEL_GW">     0</i>
   <i name="MODEL_EPS0">   2400.00000000</i>
   <i name="MODEL_ALPHA">      1.00000000</i>
  </separator>
  <separator name="linear response parameters" >
   <i type="logical" name="LEPSILON"> F  </i>
   <i type="logical" name="LRPA"> F  </i>
   <i type="logical" name="LNABLA"> F  </i>
   <i type="logical" name="LVEL"> F  </i>
   <i type="int" name="KINTER">     0</i>
   <i name="CSHIFT">      0.10000000</i>
   <i name="OMEGAMAX">     -1.00000000</i>
   <i name="DEG_THRESHOLD">      0.00200000</i>
  </separator>
  <separator name="orbital magnetization" >
   <i type="logical" name="NUCIND"> F  </i>
   <v name="MAGPOS">      0.00000000      0.00000000      0.00000000</v>
   <i type="logical" name="LNICSALL"> T  </i>
   <i type="logical" name="ORBITALMAG"> F  </i>
   <i type="logical" name="LMAGBLOCH"> F  </i>
   <i type="logical" name="LCHIMAG"> F  </i>
   <i type="logical" name="LGAUGE"> T  </i>
   <i type="int" name="MAGATOM">     0</i>
   <v name="MAGDIPOL">      0.00000000      0.00000000      0.00000000</v>
   <v name="AVECCONST">      0.00000000      0.00000000      0.00000000</v>
  </separator>
  <separator name="response functions" >
   <i type="logical" name="LADDER"> F  </i>
   <i type="logical" name="LFXC"> F  </i>
   <i type="logical" name="LHARTREE"> T  </i>
   <i type="int" name="IBSE">     0</i>
   <v type="int" name="KPOINT">    -1     0     0     0</v>
   <i type="logical" name="LTCTE"> F  </i>
   <i type="logical" name="LTETE"> F  </i>
   <i type="logical" name="LTRIPLET"> F  </i>
   <i type="logical" name="LFXCEPS"> F  </i>
   <i type="logical" name="LFXHEG"> F  </i>
   <i type="int" name="NATURALO">     0</i>
   <i type="logical" name="L2ORDER"> F  </i>
   <i type="logical" name="LUSEW"> F  </i>
   <i name="ENCUTGW">     -2.00000000</i>
   <i name="ENCUTGWSOFT">     -2.00000000</i>
   <i name="ENCUTLF">     -1.00000000</i>
   <i type="int" name="LMAXMP2">    -1</i>
   <i name="SCISSOR">      0.00000000</i>
   <i type="int" name="NOMEGA">     0</i>
   <i type="int" name="NOMEGAR">     0</i>
   <i type="int" name="NBANDSGW">    -1</i>
   <i type="int" name="NBANDSO">    -1</i>
   <i type="int" name="NBANDSV">    -1</i>
   <i type="int" name="NELM">     1</i>
   <i type="int" name="NELMHF">     1</i>
   <i type="int" name="DIM">     3</i>
   <i type="int" name="ANTIRES">     0</i>
   <i name="OMEGAMAX">    -30.00000000</i>
   <i name="OMEGAMIN">    -30.00000000</i>
   <i name="OMEGATL">   -200.00000000</i>
   <i type="int" name="OMEGAGRID">     0</i>
   <i name="CSHIFT">     -0.10000000</i>
   <i type="logical" name="SELFENERGY"> F  </i>
   <i type="logical" name="LSPECTRAL"> F  </i>
   <i type="logical" name="LSPECTRALGW"> F  </i>
   <i type="logical" name="LSINGLES"> F  </i>
   <i type="logical" name="LFERMIGW"> F  </i>
   <i type="logical" name="ODDONLYGW"> F  </i>
   <i type="logical" name="EVENONLYGW"> F  </i>
   <i type="int" name="NKREDLFX">     1</i>
   <i type="int" name="NKREDLFY">     1</i>
   <i type="int" name="NKREDLFZ">     1</i>
   <i type="int" name="MAXMEM">  1800</i>
   <i type="int" name="TELESCOPE">     0</i>
   <i type="int" name="TAUPAR">     1</i>
   <i type="int" name="OMEGAPAR">    -1</i>
   <i name="LAMBDA">      1.00000000</i>
  </separator>
  <separator name="External order field" >
   <i name="OFIELD_KAPPA">      0.00000000</i>
   <v name="OFIELD_K">      0.00000000      0.00000000      0.00000000</v>
   <i name="OFIELD_Q6_NEAR">      0.00000000</i>
   <i name="OFIELD_Q6_FAR">      0.00000000</i>
   <i name="OFIELD_A">      0.00000000</i>
  </separator>
 </parameters>
 <atominfo>
  <atoms>       2 </atoms>
  <types>       1 </types>
  <array name="atoms" >
   <dimension dim="1">ion</dimension>
   <field type="string">element</field>
   <field type="int">atomtype</field>
   <set>
    <rc><c>H </c><c>   1</c></rc>
    <rc><c>H </c><c>   1</c></rc>
   </set>
  </array>
  <array name="atomtypes" >
   <dimension dim="1">type</dimension>
   <field type="int">atomspertype</field>
   <field type="string">element</field>
   <field>mass</field>
   <field>valence</field>
   <field type="string">pseudopotential</field>
   <set>
    <rc><c>   2</c><c>H </c><c>      1.00000000</c><c>      1.00000000</c><c>  PAW_PBE H 15Jun2001                   </c></rc>
   </set>
  </array>
 </atominfo>
 <structure name="initialpos" >
  <crystal>
   <varray name="basis" >
    <v>      20.00000000       0.00000000       0.00000000 </v>
    <v>       0.00000000      20.00000000       0.00000000 </v>
    <v>       0.00000000       0.00000000      20.00000000 </v>
   </varray>
   <i name="volume">   8000.00000000 </i>
   <varray name="rec_basis" >
    <v>       0.05000000       0.00000000       0.00000000 </v>
    <v>       0.00000000       0.05000000       0.00000000 </v>
    <v>       0.00000000       0.00000000       0.05000000 </v>
   </varray>
  </crystal>
  <varray name="positions" >
   <v>       0.50000000       0.50000000       0.51877857 </v>
   <v>       0.50000000       0.50000000       0.48122143 </v>
  </varray>
 </structure>
 <calculation>
  <scstep>
   <time name="dav">    0.42    0.42</time>
   <time name="total">    2.27    2.55</time>
   <energy>
    <i name="alphaZ">      0.00121808 </i>
    <i name="ewald">     15.08698447 </i>
    <i name="hartreedc">    -24.58061496 </i>
    <i name="XCdc">      4.34902988 </i>
    <i name="pawpsdc">      4.26805487 </i>
    <i name="pawaedc">     -4.28581044 </i>
    <i name="eentropy">     -0.00000000 </i>
    <i name="bandstr">    -18.42742518 </i>
    <i name="atom">     24.95726533 </i>
    <i name="e_fr_energy">      1.36870205 </i>
    <i name="e_wo_entrp">      1.36870205 </i>
    <i name="e_0_energy">      1.36870205 </i>
   </energy>
  </scstep>
  <scstep>
   <time name="dav">    0.28    0.28</time>
   <time name="total">    0.28    0.31</time>
   <energy>
    <i name="e_fr_energy">     -7.33920250 </i>
    <i name="e_wo_entrp">     -7.33920250 </i>
    <i name="e_0_energy">     -7.33920250 </i>
   </energy>
  </scstep>
  <scstep>
   <time name="dav">    0.30    0.30</time>
   <time name="total">    0.30    0.30</time>
   <energy>
    <i name="e_fr_energy">     -7.43585064 </i>
    <i name="e_wo_entrp">     -7.43585064 </i>
    <i name="e_0_energy">     -7.43585064 </i>
   </energy>
  </scstep>
  <scstep>
   <time name="dav">    0.30    0.30</time>
   <time name="total">    0.55    0.56</time>
   <energy>
    <i name="e_fr_energy">     -7.43589952 </i>
    <i name="e_wo_entrp">     -7.43589952 </i>
    <i name="e_0_energy">     -7.43589952 </i>
   </energy>
  </scstep>
  <scstep>
   <time name="diag">    0.06    0.06</time>
   <time name="diis">    0.25    0.25</time>
   <time name="orth">    0.01    0.01</time>
   <time name="total">    0.91    0.94</time>
   <energy>
    <i name="e_fr_energy">     -6.99538379 </i>
    <i name="e_wo_entrp">     -6.99538379 </i>
    <i name="e_0_energy">     -6.99538379 </i>
   </energy>
  </scstep>
  <scstep>
   <time name="diag">    0.06    0.06</time>
   <time name="diis">    0.31    0.31</time>
   <time name="orth">    0.01    0.01</time>
   <time name="total">    0.96    0.97</time>
   <energy>
    <i name="e_fr_energy">     -6.75451780 </i>
    <i name="e_wo_entrp">     -6.75451780 </i>
    <i name="e_0_energy">     -6.75451780 </i>
   </energy>
  </scstep>
  <scstep>
   <time name="diag">    0.06    0.06</time>
   <time name="diis">    0.29    0.29</time>
   <time name="orth">    0.01    0.01</time>
   <time name="total">    0.93    0.97</time>
   <energy>
    <i name="e_fr_energy">     -6.75838655 </i>
    <i name="e_wo_entrp">     -6.75838655 </i>
    <i name="e_0_energy">     -6.75838655 </i>
   </energy>
  </scstep>
  <scstep>
   <time name="diag">    0.06    0.06</time>
   <time name="diis">    0.37    0.37</time>
   <time name="orth">    0.01    0.01</time>
   <time name="total">    1.06    1.09</time>
   <energy>
    <i name="e_fr_energy">     -6.75549823 </i>
    <i name="e_wo_entrp">     -6.75549823 </i>
    <i name="e_0_energy">     -6.75549823 </i>
   </energy>
  </scstep>
  <scstep>
   <time name="diag">    0.06    0.06</time>
   <time name="diis">    0.21    0.21</time>
   <time name="orth">    0.01    0.01</time>
   <time name="total">    0.93    0.94</time>
   <energy>
    <i name="e_fr_energy">     -6.75684995 </i>
    <i name="e_wo_entrp">     -6.75684995 </i>
    <i name="e_0_energy">     -6.75684995 </i>
   </energy>
  </scstep>
  <scstep>
   <time name="diag">    0.06    0.06</time>
   <time name="diis">    0.33    0.34</time>
   <time name="orth">    0.01    0.01</time>
   <time name="total">    0.98    0.98</time>
   <energy>
    <i name="e_fr_energy">     -6.75733086 </i>
    <i name="e_wo_entrp">     -6.75733086 </i>
    <i name="e_0_energy">     -6.75733086 </i>
   </energy>
  </scstep>
  <scstep>
   <time name="diag">    0.06    0.06</time>
   <time name="diis">    0.23    0.23</time>
   <time name="orth">    0.01    0.01</time>
   <time name="total">    0.94    0.94</time>
   <energy>
    <i name="e_fr_energy">     -6.75916423 </i>
    <i name="e_wo_entrp">     -6.75916423 </i>
    <i name="e_0_energy">     -6.75916423 </i>
   </energy>
  </scstep>
  <scstep>
   <time name="diag">    0.06    0.06</time>
   <time name="diis">    0.25    0.25</time>
   <time name="orth">    0.01    0.01</time>
   <time name="total">    0.89    0.89</time>
   <energy>
    <i name="e_fr_energy">     -6.75937770 </i>
    <i name="e_wo_entrp">     -6.75937770 </i>
    <i name="e_0_energy">     -6.75937770 </i>
   </energy>
  </scstep>
  <scstep>
   <time name="diag">    0.06    0.06</time>
   <time name="diis">    0.26    0.26</time>
   <time name="orth">    0.01    0.01</time>
   <time name="total">    0.93    0.95</time>
   <energy>
    <i name="e_fr_energy">     -6.75954729 </i>
    <i name="e_wo_entrp">     -6.75954729 </i>
    <i name="e_0_energy">     -6.75954729 </i>
   </energy>
  </scstep>
  <scstep>
   <time name="diag">    0.06    0.06</time>
   <time name="diis">    0.28    0.28</time>
   <time name="orth">    0.01    0.01</time>
   <time name="total">    0.94    1.01</time>
   <energy>
    <i name="e_fr_energy">     -6.75960034 </i>
    <i name="e_wo_entrp">     -6.75960034 </i>
    <i name="e_0_energy">     -6.75960034 </i>
   </energy>
  </scstep>
  <scstep>
   <time name="diag">    0.06    0.08</time>
   <time name="diis">    0.25    0.29</time>
   <time name="orth">    0.01    0.01</time>
   <time name="total">    0.88    0.96</time>
   <energy>
    <i name="e_fr_energy">     -6.75962121 </i>
    <i name="e_wo_entrp">     -6.75962121 </i>
    <i name="e_0_energy">     -6.75962121 </i>
   </energy>
  </scstep>
  <scstep>
   <time name="diag">    0.06    0.06</time>
   <time name="diis">    0.29    0.29</time>
   <time name="orth">    0.01    0.01</time>
   <time name="total">    0.94    0.94</time>
   <energy>
    <i name="e_fr_energy">     -6.75963468 </i>
    <i name="e_wo_entrp">     -6.75963468 </i>
    <i name="e_0_energy">     -6.75963468 </i>
   </energy>
  </scstep>
  <scstep>
   <time name="diag">    0.06    0.06</time>
   <time name="diis">    0.28    0.28</time>
   <time name="orth">    0.01    0.01</time>
   <time name="total">    0.97    0.98</time>
   <energy>
    <i name="e_fr_energy">     -6.75963801 </i>
    <i name="e_wo_entrp">     -6.75963801 </i>
    <i name="e_0_energy">     -6.75963801 </i>
   </energy>
  </scstep>
  <scstep>
   <time name="diag">    0.06    0.06</time>
   <time name="diis">    0.20    0.20</time>
   <time name="orth">    0.01    0.01</time>
   <time name="total">    0.85    0.85</time>
   <energy>
    <i name="e_fr_energy">     -6.75964025 </i>
    <i name="e_wo_entrp">     -6.75964025 </i>
    <i name="e_0_energy">     -6.75964025 </i>
   </energy>
  </scstep>
  <scstep>
   <time name="diag">    0.06    0.06</time>
   <time name="diis">    0.37    0.37</time>
   <time name="orth">    0.01    0.01</time>
   <time name="total">    0.81    0.89</time>
   <energy>
    <i name="alphaZ">      0.00121808 </i>
    <i name="ewald">     15.08698447 </i>
    <i name="hartreedc">    -31.40314211 </i>
    <i name="XCdc">      5.29657823 </i>
    <i name="pawpsdc">     24.54337045 </i>
    <i name="pawaedc">    -24.59204939 </i>
    <i name="eentropy">     -0.00000000 </i>
    <i name="bandstr">    -20.64986545 </i>
    <i name="atom">     24.95726533 </i>
    <i name="e_fr_energy">     -6.75964039 </i>
    <i name="e_wo_entrp">     -6.75964039 </i>
    <i name="e_0_energy">     -6.75964039 </i>
   </energy>
  </scstep>
  <structure>
   <crystal>
    <varray name="basis" >
     <v>      20.00000000       0.00000000       0.00000000 </v>
     <v>       0.00000000      20.00000000       0.00000000 </v>
     <v>       0.00000000       0.00000000      20.00000000 </v>
    </varray>
    <i name="volume">   8000.00000000 </i>
    <varray name="rec_basis" >
     <v>       0.05000000       0.00000000       0.00000000 </v>
     <v>       0.00000000       0.05000000       0.00000000 </v>
     <v>       0.00000000       0.00000000       0.05000000 </v>
    </varray>
   </crystal>
   <varray name="positions" >
    <v>       0.50000000       0.50000000       0.51877857 </v>
    <v>       0.50000000       0.50000000       0.48122143 </v>
   </varray>
  </structure>
  <varray name="forces" >
   <v>       0.00000000       0.00000000      -0.00786560 </v>
   <v>       0.00000000       0.00000000       0.00786560 </v>
  </varray>
  <varray name="stress" >
   <v>      -0.02395324       0.00000000      -0.00000000 </v>
   <v>       0.00000000      -0.02395324       0.00000000 </v>
   <v>       0.00000000       0.00000000      -0.03191182 </v>
  </varray>
  <energy>
   <i name="e_fr_energy">     -6.75964039 </i>
   <i name="e_wo_entrp">     -6.75964039 </i>
   <i name="e_0_energy">     -0.00000000 </i>
  </energy>
  <time name="totalsc">   18.46   19.14</time>
  <eigenvalues>
   <array>
    <dimension dim="1">band</dimension>
    <dimension dim="2">kpoint</dimension>
    <dimension dim="3">spin</dimension>
    <field>eigene</field>
    <field>occ</field>
    <set>
     <set comment="spin 1">
      <set comment="kpoint 1">
       <r>  -10.3249    1.0000 </r>
       <r>   -0.0548    0.0000 </r>
       <r>    0.1571    0.0000 </r>
       <r>    0.2516    0.0000 </r>
       <r>    0.3168    0.0000 </r>
       <r>    0.3168    0.0000 </r>
       <r>    0.3421    0.0000 </r>
       <r>    0.3457    0.0000 </r>
      </set>
     </set>
    </set>
   </array>
  </eigenvalues>
  <separator name="orbital magnetization" >
   <v name="MAGDIPOLOUT">      0.00000000      0.00000000      0.00000000</v>
  </separator>
  <dos>
   <i name="efermi">     -7.94609971 </i>
   <total>
    <array>
     <dimension dim="1">gridpoints</dimension>
     <dimension dim="2">spin</dimension>
     <field>energy</field>
     <field>total</field>
     <field>integrated</field>
     <set>
      <set comment="spin 1">
       <r>   -11.3249     0.0000     0.0000 </r>
       <r>   -11.2827     0.0000     0.0000 </r>
       <r>   -11.2405     0.0000     0.0000 </r>
       <r>   -11.1982     0.0000     0.0000 </r>
       <r>   -11.1560     0.0116     0.0005 </r>
       <r>   -11.1138     0.0061     0.0007 </r>
       <r>   -11.0715     0.0093     0.0011 </r>
       <r>   -11.0293     0.0142     0.0017 </r>
       <r>   -10.9870     0.0217     0.0027 </r>
       <r>   -10.9448     0.0330     0.0041 </r>
       <r>   -10.9026     0.0503     0.0062 </r>
       <r>   -10.8603     0.0765     0.0094 </r>
       <r>   -10.8181     0.1163     0.0143 </r>
       <r>   -10.7759     0.1763     0.0218 </r>
       <r>   -10.7336     0.2664     0.0330 </r>
       <r>   -10.6914     0.4007     0.0499 </r>
       <r>   -10.6492     0.5981     0.0752 </r>
       <r>   -10.6069     0.8832     0.1125 </r>
       <r>   -10.5647     1.2833     0.1667 </r>
       <r>   -10.5225     1.8217     0.2436 </r>
       <r>   -10.4802     2.5022     0.3493 </r>
       <r>   -10.4380     3.2860     0.4881 </r>
       <r>   -10.3958     4.0695     0.6600 </r>
       <r>   -10.3535     4.6892     0.8580 </r>
       <r>   -10.3113     4.9746     1.0681 </r>
       <r>   -10.2690     4.8355     1.2724 </r>
       <r>   -10.2268     4.3168     1.4547 </r>
       <r>   -10.1846     3.5705     1.6055 </r>
       <r>   -10.1423     2.7714     1.7225 </r>
       <r>   -10.1001     2.0469     1.8090 </r>
       <r>   -10.0579     1.4571     1.8705 </r>
       <r>   -10.0156     1.0101     1.9132 </r>
       <r>    -9.9734     0.6875     1.9422 </r>
       <r>    -9.9312     0.4621     1.9618 </r>
       <r>    -9.8889     0.3080     1.9748 </r>
       <r>    -9.8467     0.2041     1.9834 </r>
       <r>    -9.8045     0.1348     1.9891 </r>
       <r>    -9.7622     0.0888     1.9928 </r>
       <r>    -9.7200     0.0584     1.9953 </r>
       <r>    -9.6778     0.0383     1.9969 </r>
       <r>    -9.6355     0.0252     1.9980 </r>
       <r>    -9.5933     0.0165     1.9987 </r>
       <r>    -9.5510     0.0108     1.9991 </r>
       <r>    -9.5088     0.0000     2.0000 </r>
       <r>    -9.4666     0.0000     2.0000 </r>
       <r>    -9.4243     0.0000     2.0000 </r>
       <r>    -9.3821     0.0000     2.0000 </r>
       <r>    -9.3399     0.0000     2.0000 </r>
       <r>    -9.2976     0.0000     2.0000 </r>
       <r>    -9.2554     0.0000     2.0000 </r>
       <r>    -9.2132     0.0000     2.0000 </r>
       <r>    -9.1709     0.0000     2.0000 </r>
       <r>    -9.1287     0.0000     2.0000 </r>
       <r>    -9.0865     0.0000     2.0000 </r>
       <r>    -9.0442     0.0000     2.0000 </r>
       <r>    -9.0020     0.0000     2.0000 </r>
       <r>    -8.9597     0.0000     2.0000 </r>
       <r>    -8.9175     0.0000     2.0000 </r>
       <r>    -8.8753     0.0000     2.0000 </r>
       <r>    -8.8330     0.0000     2.0000 </r>
       <r>    -8.7908     0.0000     2.0000 </r>
       <r>    -8.7486     0.0000     2.0000 </r>
       <r>    -8.7063     0.0000     2.0000 </r>
       <r>    -8.6641     0.0000     2.0000 </r>
       <r>    -8.6219     0.0000     2.0000 </r>
       <r>    -8.5796     0.0000     2.0000 </r>
       <r>    -8.5374     0.0000     2.0000 </r>
       <r>    -8.4952     0.0000     2.0000 </r>
       <r>    -8.4529     0.0000     2.0000 </r>
       <r>    -8.4107     0.0000     2.0000 </r>
       <r>    -8.3685     0.0000     2.0000 </r>
       <r>    -8.3262     0.0000     2.0000 </r>
       <r>    -8.2840     0.0000     2.0000 </r>
       <r>    -8.2417     0.0000     2.0000 </r>
       <r>    -8.1995     0.0000     2.0000 </r>
       <r>    -8.1573     0.0000     2.0000 </r>
       <r>    -8.1150     0.0000     2.0000 </r>
       <r>    -8.0728     0.0000     2.0000 </r>
       <r>    -8.0306     0.0000     2.0000 </r>
       <r>    -7.9883     0.0000     2.0000 </r>
       <r>    -7.9461     0.0000     2.0000 </r>
       <r>    -7.9039     0.0000     2.0000 </r>
       <r>    -7.8616     0.0000     2.0000 </r>
       <r>    -7.8194     0.0000     2.0000 </r>
       <r>    -7.7772     0.0000     2.0000 </r>
       <r>    -7.7349     0.0000     2.0000 </r>
       <r>    -7.6927     0.0000     2.0000 </r>
       <r>    -7.6505     0.0000     2.0000 </r>
       <r>    -7.6082     0.0000     2.0000 </r>
       <r>    -7.5660     0.0000     2.0000 </r>
       <r>    -7.5237     0.0000     2.0000 </r>
       <r>    -7.4815     0.0000     2.0000 </r>
       <r>    -7.4393     0.0000     2.0000 </r>
       <r>    -7.3970     0.0000     2.0000 </r>
       <r>    -7.3548     0.0000     2.0000 </r>
       <r>    -7.3126     0.0000     2.0000 </r>
       <r>    -7.2703     0.0000     2.0000 </r>
       <r>    -7.2281     0.0000     2.0000 </r>
       <r>    -7.1859     0.0000     2.0000 </r>
       <r>    -7.1436     0.0000     2.0000 </r>
       <r>    -7.1014     0.0000     2.0000 </r>
       <r>    -7.0592     0.0000     2.0000 </r>
       <r>    -7.0169     0.0000     2.0000 </r>
       <r>    -6.9747     0.0000     2.0000 </r>
       <r>    -6.9324     0.0000     2.0000 </r>
       <r>    -6.8902     0.0000     2.0000 </r>
       <r>    -6.8480     0.0000     2.0000 </r>
       <r>    -6.8057     0.0000     2.0000 </r>
       <r>    -6.7635     0.0000     2.0000 </r>
       <r>    -6.7213     0.0000     2.0000 </r>
       <r>    -6.6790     0.0000     2.0000 </r>
       <r>    -6.6368     0.0000     2.0000 </r>
       <r>    -6.5946     0.0000     2.0000 </r>
       <r>    -6.5523     0.0000     2.0000 </r>
       <r>    -6.5101     0.0000     2.0000 </r>
       <r>    -6.4679     0.0000     2.0000 </r>
       <r>    -6.4256     0.0000     2.0000 </r>
       <r>    -6.3834     0.0000     2.0000 </r>
       <r>    -6.3412     0.0000     2.0000 </r>
       <r>    -6.2989     0.0000     2.0000 </r>
       <r>    -6.2567     0.0000     2.0000 </r>
       <r>    -6.2144     0.0000     2.0000 </r>
       <r>    -6.1722     0.0000     2.0000 </r>
       <r>    -6.1300     0.0000     2.0000 </r>
       <r>    -6.0877     0.0000     2.0000 </r>
       <r>    -6.0455     0.0000     2.0000 </r>
       <r>    -6.0033     0.0000     2.0000 </r>
       <r>    -5.9610     0.0000     2.0000 </r>
       <r>    -5.9188     0.0000     2.0000 </r>
       <r>    -5.8766     0.0000     2.0000 </r>
       <r>    -5.8343     0.0000     2.0000 </r>
       <r>    -5.7921     0.0000     2.0000 </r>
       <r>    -5.7499     0.0000     2.0000 </r>
       <r>    -5.7076     0.0000     2.0000 </r>
       <r>    -5.6654     0.0000     2.0000 </r>
       <r>    -5.6232     0.0000     2.0000 </r>
       <r>    -5.5809     0.0000     2.0000 </r>
       <r>    -5.5387     0.0000     2.0000 </r>
       <r>    -5.4964     0.0000     2.0000 </r>
       <r>    -5.4542     0.0000     2.0000 </r>
       <r>    -5.4120     0.0000     2.0000 </r>
       <r>    -5.3697     0.0000     2.0000 </r>
       <r>    -5.3275     0.0000     2.0000 </r>
       <r>    -5.2853     0.0000     2.0000 </r>
       <r>    -5.2430     0.0000     2.0000 </r>
       <r>    -5.2008     0.0000     2.0000 </r>
       <r>    -5.1586     0.0000     2.0000 </r>
       <r>    -5.1163     0.0000     2.0000 </r>
       <r>    -5.0741     0.0000     2.0000 </r>
       <r>    -5.0319     0.0000     2.0000 </r>
       <r>    -4.9896     0.0000     2.0000 </r>
       <r>    -4.9474     0.0000     2.0000 </r>
       <r>    -4.9052     0.0000     2.0000 </r>
       <r>    -4.8629     0.0000     2.0000 </r>
       <r>    -4.8207     0.0000     2.0000 </r>
       <r>    -4.7784     0.0000     2.0000 </r>
       <r>    -4.7362     0.0000     2.0000 </r>
       <r>    -4.6940     0.0000     2.0000 </r>
       <r>    -4.6517     0.0000     2.0000 </r>
       <r>    -4.6095     0.0000     2.0000 </r>
       <r>    -4.5673     0.0000     2.0000 </r>
       <r>    -4.5250     0.0000     2.0000 </r>
       <r>    -4.4828     0.0000     2.0000 </r>
       <r>    -4.4406     0.0000     2.0000 </r>
       <r>    -4.3983     0.0000     2.0000 </r>
       <r>    -4.3561     0.0000     2.0000 </r>
       <r>    -4.3139     0.0000     2.0000 </r>
       <r>    -4.2716     0.0000     2.0000 </r>
       <r>    -4.2294     0.0000     2.0000 </r>
       <r>    -4.1871     0.0000     2.0000 </r>
       <r>    -4.1449     0.0000     2.0000 </r>
       <r>    -4.1027     0.0000     2.0000 </r>
       <r>    -4.0604     0.0000     2.0000 </r>
       <r>    -4.0182     0.0000     2.0000 </r>
       <r>    -3.9760     0.0000     2.0000 </r>
       <r>    -3.9337     0.0000     2.0000 </r>
       <r>    -3.8915     0.0000     2.0000 </r>
       <r>    -3.8493     0.0000     2.0000 </r>
       <r>    -3.8070     0.0000     2.0000 </r>
       <r>    -3.7648     0.0000     2.0000 </r>
       <r>    -3.7226     0.0000     2.0000 </r>
       <r>    -3.6803     0.0000     2.0000 </r>
       <r>    -3.6381     0.0000     2.0000 </r>
       <r>    -3.5959     0.0000     2.0000 </r>
       <r>    -3.5536     0.0000     2.0000 </r>
       <r>    -3.5114     0.0000     2.0000 </r>
       <r>    -3.4691     0.0000     2.0000 </r>
       <r>    -3.4269     0.0000     2.0000 </r>
       <r>    -3.3847     0.0000     2.0000 </r>
       <r>    -3.3424     0.0000     2.0000 </r>
       <r>    -3.3002     0.0000     2.0000 </r>
       <r>    -3.2580     0.0000     2.0000 </r>
       <r>    -3.2157     0.0000     2.0000 </r>
       <r>    -3.1735     0.0000     2.0000 </r>
       <r>    -3.1313     0.0000     2.0000 </r>
       <r>    -3.0890     0.0000     2.0000 </r>
       <r>    -3.0468     0.0000     2.0000 </r>
       <r>    -3.0046     0.0000     2.0000 </r>
       <r>    -2.9623     0.0000     2.0000 </r>
       <r>    -2.9201     0.0000     2.0000 </r>
       <r>    -2.8779     0.0000     2.0000 </r>
       <r>    -2.8356     0.0000     2.0000 </r>
       <r>    -2.7934     0.0000     2.0000 </r>
       <r>    -2.7511     0.0000     2.0000 </r>
       <r>    -2.7089     0.0000     2.0000 </r>
       <r>    -2.6667     0.0000     2.0000 </r>
       <r>    -2.6244     0.0000     2.0000 </r>
       <r>    -2.5822     0.0000     2.0000 </r>
       <r>    -2.5400     0.0000     2.0000 </r>
       <r>    -2.4977     0.0000     2.0000 </r>
       <r>    -2.4555     0.0000     2.0000 </r>
       <r>    -2.4133     0.0000     2.0000 </r>
       <r>    -2.3710     0.0000     2.0000 </r>
       <r>    -2.3288     0.0000     2.0000 </r>
       <r>    -2.2866     0.0000     2.0000 </r>
       <r>    -2.2443     0.0000     2.0000 </r>
       <r>    -2.2021     0.0000     2.0000 </r>
       <r>    -2.1598     0.0000     2.0000 </r>
       <r>    -2.1176     0.0000     2.0000 </r>
       <r>    -2.0754     0.0000     2.0000 </r>
       <r>    -2.0331     0.0000     2.0000 </r>
       <r>    -1.9909     0.0000     2.0000 </r>
       <r>    -1.9487     0.0000     2.0000 </r>
       <r>    -1.9064     0.0000     2.0000 </r>
       <r>    -1.8642     0.0000     2.0000 </r>
       <r>    -1.8220     0.0000     2.0000 </r>
       <r>    -1.7797     0.0000     2.0000 </r>
       <r>    -1.7375     0.0000     2.0000 </r>
       <r>    -1.6953     0.0000     2.0000 </r>
       <r>    -1.6530     0.0000     2.0000 </r>
       <r>    -1.6108     0.0000     2.0000 </r>
       <r>    -1.5686     0.0000     2.0000 </r>
       <r>    -1.5263     0.0000     2.0000 </r>
       <r>    -1.4841     0.0000     2.0000 </r>
       <r>    -1.4418     0.0000     2.0000 </r>
       <r>    -1.3996     0.0000     2.0000 </r>
       <r>    -1.3574     0.0000     2.0000 </r>
       <r>    -1.3151     0.0000     2.0000 </r>
       <r>    -1.2729     0.0000     2.0000 </r>
       <r>    -1.2307     0.0000     2.0000 </r>
       <r>    -1.1884     0.0000     2.0000 </r>
       <r>    -1.1462     0.0000     2.0000 </r>
       <r>    -1.1040     0.0000     2.0000 </r>
       <r>    -1.0617     0.0000     2.0000 </r>
       <r>    -1.0195     0.0000     2.0000 </r>
       <r>    -0.9773     0.0000     2.0000 </r>
       <r>    -0.9350     0.0000     2.0000 </r>
       <r>    -0.8928     0.0109     2.0005 </r>
       <r>    -0.8506     0.0057     2.0007 </r>
       <r>    -0.8083     0.0087     2.0011 </r>
       <r>    -0.7661     0.0133     2.0016 </r>
       <r>    -0.7238     0.0202     2.0025 </r>
       <r>    -0.6816     0.0416     2.0042 </r>
       <r>    -0.6394     0.0526     2.0065 </r>
       <r>    -0.5971     0.0801     2.0098 </r>
       <r>    -0.5549     0.1367     2.0156 </r>
       <r>    -0.5127     0.2163     2.0248 </r>
       <r>    -0.4704     0.3317     2.0388 </r>
       <r>    -0.4282     0.4733     2.0588 </r>
       <r>    -0.3860     0.7103     2.0888 </r>
       <r>    -0.3437     1.0573     2.1334 </r>
       <r>    -0.3015     1.5553     2.1991 </r>
       <r>    -0.2593     2.2493     2.2941 </r>
       <r>    -0.2170     3.1775     2.4283 </r>
       <r>    -0.1748     4.3527     2.6121 </r>
       <r>    -0.1325     5.7427     2.8547 </r>
       <r>    -0.0903     7.2714     3.1618 </r>
       <r>    -0.0481     8.8619     3.5361 </r>
       <r>    -0.0058    10.5114     3.9800 </r>
       <r>     0.0364    12.3311     4.5008 </r>
       <r>     0.0786    14.4911     5.1129 </r>
       <r>     0.1209    17.0953     5.8349 </r>
       <r>     0.1631    20.0724     6.6827 </r>
       <r>     0.2053    23.1382     7.6599 </r>
       <r>     0.2476    25.8130     8.7501 </r>
       <r>     0.2898    27.4947     9.9114 </r>
       <r>     0.3320    27.6316    11.0784 </r>
       <r>     0.3743    25.9820    12.1758 </r>
       <r>     0.4165    22.7935    13.1385 </r>
       <r>     0.4587    18.7179    13.9290 </r>
       <r>     0.5010    14.5069    14.5417 </r>
       <r>     0.5432    10.7260    14.9948 </r>
       <r>     0.5855     7.6492    15.3178 </r>
       <r>     0.6277     5.3125    15.5422 </r>
       <r>     0.6699     3.6212    15.6951 </r>
       <r>     0.7122     2.4367    15.7981 </r>
       <r>     0.7544     1.6177    15.8673 </r>
       <r>     0.7966     1.0727    15.9126 </r>
       <r>     0.8389     0.7086    15.9426 </r>
       <r>     0.8811     0.4668    15.9623 </r>
       <r>     0.9233     0.3070    15.9752 </r>
       <r>     0.9656     0.1940    15.9844 </r>
       <r>     1.0078     0.1274    15.9897 </r>
       <r>     1.0500     0.0836    15.9933 </r>
       <r>     1.0923     0.0493    15.9960 </r>
       <r>     1.1345     0.0183    15.9985 </r>
       <r>     1.1767     0.0000    16.0000 </r>
       <r>     1.2190     0.0000    16.0000 </r>
       <r>     1.2612     0.0000    16.0000 </r>
       <r>     1.3035     0.0000    16.0000 </r>
       <r>     1.3457     0.0000    16.0000 </r>
      </set>
     </set>
    </array>
   </total>
  </dos>
 </calculation>
 <structure name="finalpos" >
  <crystal>
   <varray name="basis" >
    <v>      20.00000000       0.00000000       0.00000000 </v>
    <v>       0.00000000      20.00000000       0.00000000 </v>
    <v>       0.00000000       0.00000000      20.00000000 </v>
   </varray>
   <i name="volume">   8000.00000000 </i>
   <varray name="rec_basis" >
    <v>       0.05000000       0.00000000       0.00000000 </v>
    <v>       0.00000000       0.05000000       0.00000000 </v>
    <v>       0.00000000       0.00000000       0.05000000 </v>
   </varray>
  </crystal>
  <varray name="positions" >
   <v>       0.50000000       0.50000000       0.51877857 </v>
   <v>       0.50000000       0.50000000       0.48122143 </v>
  </varray>
 </structure>
</modeling>
