unknown system                          
           1
    20.000000    0.000000    0.000000
     0.000000   20.000000    0.000000
     0.000000    0.000000   20.000000
   H 
   2
Direct configuration=     1
   0.50000000  0.50000000  0.51877857
   0.50000000  0.50000000  0.48122143
