 vasp.5.4.1 24Jun15 (build Oct 10 2016 12:42:00) complex                        
  
 executed on           IFC91_ompi date 2018.06.09  18:27:26
 running on   20 total cores
 distrk:  each k-point on   20 cores,    1 groups
 distr:  one band on NCORES_PER_BAND=   4 cores,    5 groups


--------------------------------------------------------------------------------------------------------


 INCAR:
 POTCAR:    PAW_PBE Pt 04Feb2005                  
 POTCAR:    PAW_PBE C 08Apr2002                   
 POTCAR:    PAW_PBE H 15Jun2001                   
 POTCAR:    PAW_PBE Pt 04Feb2005                  
   VRHFIN =Pt: s1d9                                                             
   LEXCH  = PE                                                                  
   EATOM  =   729.1176 eV,   53.5886 Ry                                         
                                                                                
   TITEL  = PAW_PBE Pt 04Feb2005                                                
   LULTRA =        F    use ultrasoft PP ?                                      
   IUNSCR =        1    unscreen: 0-lin 1-nonlin 2-no                           
   RPACOR =    2.330    partial core radius                                     
   POMASS =  195.080; ZVAL   =   10.000    mass and valenz                      
   RCORE  =    2.600    outmost cutoff radius                                   
   RWIGS  =    2.750; RWIGS  =    1.455    wigner-seitz radius (au A)           
   ENMAX  =  230.283; ENMIN  =  172.712 eV                                      
   ICORE  =        3    local potential                                         
   LCOR   =        T    correct aug charges                                     
   LPAW   =        T    paw PP                                                  
   EAUG   =  358.966                                                            
   DEXC   =    0.000                                                            
   RMAX   =    2.658    core radius for proj-oper                               
   RAUG   =    1.300    factor for augmentation sphere                          
   RDEP   =    2.761    radius for radial grids                                 
   RDEPT  =    2.203    core radius for aug-charge                              
                                                                                
   Atomic configuration                                                         
   16 entries                                                                   
     n  l   j            E        occ.                                          
     1  0  0.50    -78401.1885   2.0000                                         
     2  0  0.50    -13770.7750   2.0000                                         
     2  1  1.50    -11931.0468   6.0000                                         
     3  0  0.50     -3234.7234   2.0000                                         
     3  1  1.50     -2699.2216   6.0000                                         
     3  2  2.50     -2119.5714  10.0000                                         
     4  0  0.50      -695.1528   2.0000                                         
     4  1  1.50      -519.6034   6.0000                                         
     4  2  2.50      -306.6786  10.0000                                         
     4  3  3.50       -70.1041  14.0000                                         
     5  0  0.50      -101.7747   2.0000                                         
     5  1  1.50       -55.9873   6.0000                                         
     5  2  2.50        -6.1423   9.0000                                         
     6  0  0.50        -5.6573   1.0000                                         
     6  1  1.50        -6.8029   0.0000                                         
     5  3  2.50        -1.3606   0.0000                                         
   Description                                                                  
     l       E           TYP  RCUT    TYP  RCUT                                 
     2     -6.1423404     23  2.500                                             
     2     -7.5029230     23  2.500                                             
     0     -5.6573207     23  2.500                                             
     0      0.7416693     23  2.500                                             
     1     -2.7211652     23  2.600                                             
     1     20.4087390     23  2.600                                             
     3     -1.3605826     23  2.500                                             
  local pseudopotential read in
  partial core-charges read in
  partial kinetic energy density read in
  atomic valenz-charges read in
  non local Contribution for L=           2  read in
    real space projection operators read in
  non local Contribution for L=           2  read in
    real space projection operators read in
  non local Contribution for L=           0  read in
    real space projection operators read in
  non local Contribution for L=           0  read in
    real space projection operators read in
  non local Contribution for L=           1  read in
    real space projection operators read in
  non local Contribution for L=           1  read in
    real space projection operators read in
    PAW grid and wavefunctions read in
 
   number of l-projection  operators is LMAX  =           6
   number of lm-projection operators is LMMAX =          18
 
 POTCAR:    PAW_PBE C 08Apr2002                   
   VRHFIN =C: s2p2                                                              
   LEXCH  = PE                                                                  
   EATOM  =   147.1560 eV,   10.8157 Ry                                         
                                                                                
   TITEL  = PAW_PBE C 08Apr2002                                                 
   LULTRA =        F    use ultrasoft PP ?                                      
   IUNSCR =        1    unscreen: 0-lin 1-nonlin 2-no                           
   RPACOR =    1.200    partial core radius                                     
   POMASS =   12.011; ZVAL   =    4.000    mass and valenz                      
   RCORE  =    1.500    outmost cutoff radius                                   
   RWIGS  =    1.630; RWIGS  =    0.863    wigner-seitz radius (au A)           
   ENMAX  =  400.000; ENMIN  =  300.000 eV                                      
   ICORE  =        2    local potential                                         
   LCOR   =        T    correct aug charges                                     
   LPAW   =        T    paw PP                                                  
   EAUG   =  644.873                                                            
   DEXC   =    0.000                                                            
   RMAX   =    1.529    core radius for proj-oper                               
   RAUG   =    1.300    factor for augmentation sphere                          
   RDEP   =    1.501    radius for radial grids                                 
   RDEPT  =    1.300    core radius for aug-charge                              
                                                                                
   Atomic configuration                                                         
    4 entries                                                                   
     n  l   j            E        occ.                                          
     1  0  0.50      -273.3789   2.0000                                         
     2  0  0.50       -13.7508   2.0000                                         
     2  1  0.50        -5.2854   2.0000                                         
     3  2  1.50        -5.4423   0.0000                                         
   Description                                                                  
     l       E           TYP  RCUT    TYP  RCUT                                 
     0    -13.7508458     23  1.200                                             
     0     -8.2022199     23  1.200                                             
     1     -5.2854383     23  1.500                                             
     1     34.0145650     23  1.500                                             
     2     -5.4423304      7  1.500                                             
  local pseudopotential read in
  partial core-charges read in
  partial kinetic energy density read in
  atomic valenz-charges read in
  non local Contribution for L=           0  read in
    real space projection operators read in
  non local Contribution for L=           0  read in
    real space projection operators read in
  non local Contribution for L=           1  read in
    real space projection operators read in
  non local Contribution for L=           1  read in
    real space projection operators read in
    PAW grid and wavefunctions read in
 
   number of l-projection  operators is LMAX  =           4
   number of lm-projection operators is LMMAX =           8
 
 POTCAR:    PAW_PBE H 15Jun2001                   
   VRHFIN =H: ultrasoft test                                                    
   LEXCH  = PE                                                                  
   EATOM  =    12.4884 eV,    0.9179 Ry                                         
                                                                                
   TITEL  = PAW_PBE H 15Jun2001                                                 
   LULTRA =        F    use ultrasoft PP ?                                      
   IUNSCR =        0    unscreen: 0-lin 1-nonlin 2-no                           
   RPACOR =    0.000    partial core radius                                     
   POMASS =    1.000; ZVAL   =    1.000    mass and valenz                      
   RCORE  =    1.100    outmost cutoff radius                                   
   RWIGS  =    0.700; RWIGS  =    0.370    wigner-seitz radius (au A)           
   ENMAX  =  250.000; ENMIN  =  200.000 eV                                      
   RCLOC  =    0.701    cutoff for local pot                                    
   LCOR   =        T    correct aug charges                                     
   LPAW   =        T    paw PP                                                  
   EAUG   =  400.000                                                            
   RMAX   =    1.123    core radius for proj-oper                               
   RAUG   =    1.200    factor for augmentation sphere                          
   RDEP   =    1.112    radius for radial grids                                 
   RDEPT  =    0.926    core radius for aug-charge                              
                                                                                
   Atomic configuration                                                         
    2 entries                                                                   
     n  l   j            E        occ.                                          
     1  0  0.50        -6.4927   1.0000                                         
     2  1  0.50        -3.4015   0.0000                                         
   Description                                                                  
     l       E           TYP  RCUT    TYP  RCUT                                 
     0     -6.4927494     23  1.100                                             
     0      6.8029130     23  1.100                                             
     1     -4.0817478     23  1.100                                             
  local pseudopotential read in
  atomic valenz-charges read in
  non local Contribution for L=           0  read in
    real space projection operators read in
  non local Contribution for L=           0  read in
    real space projection operators read in
  non local Contribution for L=           1  read in
    real space projection operators read in
    PAW grid and wavefunctions read in
 
   number of l-projection  operators is LMAX  =           3
   number of lm-projection operators is LMMAX =           5
 
 Optimization of the real space projectors (new method)

 maximal supplied QI-value         = 14.36
 optimisation between [QCUT,QGAM] = [ 10.20, 20.39] = [ 29.12,116.47] Ry 
 Optimized for a Real-space Cutoff    1.51 Angstroem

   l    n(q)    QCUT    max X(q) W(low)/X(q) W(high)/X(q)  e(spline) 
   2      8    10.197    66.195    0.45E-03    0.45E-03    0.14E-06
   2      8    10.197    64.643    0.46E-03    0.46E-03    0.14E-06
   0      9    10.197    95.520    0.15E-03    0.11E-03    0.54E-07
   0      9    10.197    63.403    0.15E-03    0.11E-03    0.52E-07
   1      9    10.197    19.961    0.13E-03    0.17E-03    0.77E-07
   1      9    10.197    13.289    0.10E-03    0.15E-03    0.67E-07
 Optimization of the real space projectors (new method)

 maximal supplied QI-value         = 25.13
 optimisation between [QCUT,QGAM] = [ 10.05, 20.36] = [ 28.30,116.06] Ry 
 Optimized for a Real-space Cutoff    1.30 Angstroem

   l    n(q)    QCUT    max X(q) W(low)/X(q) W(high)/X(q)  e(spline) 
   0      8    10.053   115.676    0.49E-03    0.72E-03    0.18E-06
   0      8    10.053    87.132    0.49E-03    0.71E-03    0.18E-06
   1      7    10.053     4.429    0.32E-03    0.31E-03    0.18E-06
   1      7    10.053     2.733    0.23E-03    0.19E-03    0.20E-06
 Optimization of the real space projectors (new method)

 maximal supplied QI-value         = 34.20
 optimisation between [QCUT,QGAM] = [  9.92, 20.18] = [ 27.55,114.04] Ry 
 Optimized for a Real-space Cutoff    1.26 Angstroem

   l    n(q)    QCUT    max X(q) W(low)/X(q) W(high)/X(q)  e(spline) 
   0      8     9.919    19.460    0.50E-03    0.23E-03    0.29E-06
   0      8     9.919    12.209    0.48E-03    0.23E-03    0.28E-06
   1      7     9.919     4.655    0.17E-03    0.75E-03    0.30E-06
  PAW_PBE Pt 04Feb2005                  :
 energy of atom  1       EATOM= -729.1176
 kinetic energy error for atom=    0.0056 (will be added to EATOM!!)
  PAW_PBE C 08Apr2002                   :
 energy of atom  2       EATOM= -147.1560
 kinetic energy error for atom=    0.0288 (will be added to EATOM!!)
  PAW_PBE H 15Jun2001                   :
 energy of atom  3       EATOM=  -12.4884
 kinetic energy error for atom=    0.0098 (will be added to EATOM!!)
 
 
 POSCAR: Pt  C  H                                
  positions in cartesian coordinates
  No initial velocities read in
 exchange correlation table for  LEXCH =        8
   RHO(1)=    0.500       N(1)  =     2000
   RHO(2)=  100.500       N(2)  =     4000

 VTST: version 3.1, (03/28/14)

 CHAIN: initializing optimizer
 
 OPT: Using VASP Dynamics algorithm
 CHAIN: Read ICHAIN            0
 
 POSCAR: Pt  C  H                                
  positions in cartesian coordinates
  No initial velocities read in
 


--------------------------------------------------------------------------------------------------------


 ion  position               nearest neighbor table
   1  0.000  0.000  0.343-  12 2.81  16 2.81  10 2.81   6 2.81   7 2.81   8 2.81   2 2.81   3 2.81
                             4 2.81
   2  0.333  0.000  0.343-  10 2.81  11 2.81  17 2.81   3 2.81   9 2.81   1 2.81   4 2.81   5 2.81
                             8 2.81
   3  0.667  0.000  0.343-  11 2.81  18 2.81  12 2.81   2 2.81   5 2.81   9 2.81   1 2.81   6 2.81
                             7 2.81
   4  0.000  0.333  0.343-  10 2.81  13 2.81  15 2.81   7 2.81   9 2.81   2 2.81   5 2.81   6 2.81
                             1 2.81
   5  0.333  0.333  0.343-  14 2.81  13 2.81  11 2.81   8 2.81   6 2.81   3 2.81   7 2.81   2 2.81
                             4 2.81
   6  0.667  0.333  0.343-  12 2.81  14 2.81  15 2.81   5 2.81   8 2.81   9 2.81   1 2.81   3 2.81
                             4 2.81
   7  0.000  0.667  0.343-  13 2.81  18 2.81  16 2.81   4 2.81   5 2.81   9 2.81   1 2.81   3 2.81
                             8 2.81
   8  0.333  0.667  0.343-  14 2.81  16 2.81  17 2.81   5 2.81   6 2.81   9 2.81   2 2.81   7 2.81
                             1 2.81
   9  0.667  0.667  0.343-  15 2.81  17 2.81  18 2.81   8 2.81   6 2.81   4 2.81   2 2.81   3 2.81
                             7 2.81
  10  0.111  0.111  0.448-  26 2.77  19 2.77   2 2.81   4 2.81   1 2.81  11 2.81  13 2.81  15 2.81
                            17 2.81  16 2.81  12 2.81  20 2.81
  11  0.444  0.111  0.448-  20 2.79  27 2.79   5 2.81   2 2.81   3 2.81  14 2.81  10 2.81  13 2.81
                            18 2.81  12 2.81  17 2.81  21 2.81
  12  0.778  0.111  0.448-  19 2.78   6 2.81   1 2.81   3 2.81  15 2.81  14 2.81  11 2.81  16 2.81
                            18 2.81  10 2.81  21 2.81  25 2.82
  13  0.111  0.444  0.448-  22 2.78  20 2.79   7 2.81   4 2.81   5 2.81  14 2.81  10 2.81  11 2.81
                            18 2.81  15 2.81  16 2.81  23 2.82
  14  0.444  0.444  0.448-  24 2.79   5 2.81   8 2.81   6 2.81  13 2.81  11 2.81  16 2.81  12 2.81
                            17 2.81  15 2.81  21 2.81  23 2.81
  15  0.778  0.444  0.448-  24 2.78  19 2.78  22 2.80   4 2.81   6 2.81   9 2.81  12 2.81  10 2.81
                            18 2.81  13 2.81  14 2.81  17 2.81
  16  0.111  0.778  0.448-  26 2.75   8 2.81   1 2.81   7 2.81  17 2.81  14 2.81  10 2.81  12 2.81
                            18 2.81  13 2.81  25 2.84  23 2.84
  17  0.444  0.778  0.448-  26 2.76  24 2.77   9 2.81   2 2.81   8 2.81  16 2.81  10 2.81  11 2.81
                            18 2.81  14 2.81  15 2.81  27 2.81
  18  0.778  0.778  0.448-  22 2.79  27 2.79   3 2.81   7 2.81   9 2.81  13 2.81  15 2.81  16 2.81
                            17 2.81  11 2.81  12 2.81  25 2.82
  19  0.891  0.222  0.551-  33 2.77  10 2.77  15 2.78  12 2.78  26 2.80  22 2.81  20 2.81  25 2.82
                            28 2.82  21 2.82  24 2.82  31 2.84
  20  0.224  0.223  0.552-  23 2.77  29 2.78  21 2.79  11 2.79  13 2.79  31 2.79  27 2.81  22 2.81
                            10 2.81  19 2.81  26 2.84  32 2.97
  21  0.556  0.222  0.553-  25 2.79  23 2.79  27 2.79  20 2.79  12 2.81  33 2.81  11 2.81  14 2.81
                            19 2.82  24 2.82  32 2.92  30 2.93
  22  0.890  0.556  0.551-  13 2.78  18 2.79  25 2.80  23 2.80  15 2.80  36 2.80  20 2.81  27 2.81
                            31 2.81  24 2.81  19 2.81  34 2.83
  23  0.224  0.552  0.553-  20 2.77  21 2.79  35 2.79  34 2.79  22 2.80  14 2.81  24 2.81  13 2.82
                            26 2.82  16 2.84  25 2.85  32 2.93
  24  0.556  0.557  0.551-  17 2.77  33 2.78  15 2.78  14 2.79  26 2.80  22 2.81  35 2.81  27 2.81
                            23 2.81  19 2.82  21 2.82  36 2.84
  25  0.886  0.890  0.553-  27 2.77  21 2.79  28 2.79  22 2.80  34 2.80  19 2.82  18 2.82  26 2.82
                            12 2.82  16 2.84  23 2.85  30 2.93
  26  0.222  0.888  0.550-  16 2.75  17 2.76  10 2.77  29 2.77  24 2.80  19 2.80  25 2.82  23 2.82
                            28 2.83  35 2.83  27 2.84  20 2.84
  27  0.557  0.890  0.552-  25 2.77  29 2.78  21 2.79  18 2.79  11 2.79  36 2.80  20 2.81  22 2.81
                            17 2.81  24 2.81  26 2.84  30 2.97
  28  0.002  1.000  0.656-  29 2.75  25 2.79  34 2.80  35 2.81  33 2.81  30 2.81  19 2.82  26 2.83
                            31 2.83
  29  0.330  0.995  0.654-  28 2.75  35 2.75  26 2.77  27 2.78  20 2.78  31 2.81  36 2.81  30 2.88
                            32 2.88
  30  0.666  0.005  0.665-  37 2.06  32 2.75  28 2.81  36 2.82  34 2.84  33 2.85  29 2.88  25 2.93
                            21 2.93  27 2.97
  31  0.004  0.335  0.656-  33 2.76  20 2.79  34 2.79  29 2.81  22 2.81  36 2.81  32 2.83  28 2.83
                            19 2.84
  32  0.340  0.331  0.665-  37 2.06  30 2.75  35 2.81  31 2.83  34 2.84  33 2.85  29 2.88  21 2.92
                            23 2.93  20 2.97
  33  0.674  0.338  0.655-  31 2.76  36 2.76  19 2.77  24 2.78  28 2.81  35 2.81  21 2.81  32 2.85
                            30 2.85
  34  0.003  0.667  0.657-  23 2.79  31 2.79  36 2.80  25 2.80  28 2.80  35 2.80  22 2.83  32 2.84
                            30 2.84
  35  0.335  0.667  0.656-  29 2.75  23 2.79  34 2.80  28 2.81  32 2.81  33 2.81  24 2.81  36 2.83
                            26 2.83
  36  0.670  0.669  0.656-  33 2.76  34 2.80  27 2.80  22 2.80  29 2.81  31 2.81  30 2.82  35 2.83
                            24 2.84
  37  0.496  0.160  0.735-  39 1.10  38 1.50  30 2.06  32 2.06
  38  0.569  0.231  0.785-  41 1.10  40 1.10  42 1.10  37 1.50
  39  0.425  0.092  0.755-  37 1.10
  40  0.454  0.331  0.813-  38 1.10
  41  0.644  0.298  0.767-  38 1.10
  42  0.663  0.116  0.815-  38 1.10
 
  LATTYP: Found a hexagonal cell.
 ALAT       =     8.4216417639
 C/A-ratio  =     2.5976219743
  
  Lattice vectors:
  
 A1 = (   4.2108208820,  -7.2933557091,   0.0000000000)
 A2 = (  -8.4216417639,   0.0000000000,   0.0000000000)
 A3 = (   0.0000000000,   0.0000000000, -21.8762417060)


Analysis of symmetry for initial positions (statically):
=====================================================================
 Subroutine PRICEL returns:
 Original cell was already a primitive cell.
 

 Routine SETGRP: Setting up the symmetry group for a 
 hexagonal supercell.


 Subroutine GETGRP returns: Found  1 space group operations
 (whereof  1 operations were pure point group operations)
 out of a pool of 24 trial point group operations.


The static configuration has the point symmetry C_1 .


Analysis of symmetry for dynamics (positions and initial velocities):
=====================================================================
 Subroutine PRICEL returns:
 Original cell was already a primitive cell.
 

 Routine SETGRP: Setting up the symmetry group for a 
 hexagonal supercell.


 Subroutine GETGRP returns: Found  1 space group operations
 (whereof  1 operations were pure point group operations)
 out of a pool of 24 trial point group operations.


The dynamic configuration has the point symmetry C_1 .


Analysis of constrained symmetry for selective dynamics:
=====================================================================
 Subroutine PRICEL returns:
 Original cell was already a primitive cell.
 

 Routine SETGRP: Setting up the symmetry group for a 
 hexagonal supercell.


 Subroutine GETGRP returns: Found  1 space group operations
 (whereof  1 operations were pure point group operations)
 out of a pool of 24 trial point group operations.


The constrained configuration has the point symmetry C_1 .
 
 
 KPOINTS: KPOINTS created by Atomic Simulation Env

Automatic generation of k-mesh.
Space group operators:
 irot       det(A)        alpha          n_x          n_y          n_z        tau_x        tau_y        tau_z
    1     1.000000     0.000000     1.000000     0.000000     0.000000     0.000000     0.000000     0.000000
 
 Subroutine IBZKPT returns following result:
 ===========================================
 
 Found     54 irreducible k-points:
 
 Following reciprocal coordinates:
            Coordinates               Weight
  0.083333  0.083333  0.000000     16.000000
  0.000000  0.083333  0.000000     16.000000
 -0.083333  0.000000  0.000000     16.000000
  0.250000  0.083333  0.000000     16.000000
  0.166667  0.250000  0.000000     16.000000
 -0.083333  0.166667  0.000000     16.000000
  0.166667 -0.083333  0.000000     16.000000
 -0.083333 -0.250000  0.000000     16.000000
 -0.250000 -0.166667  0.000000     16.000000
  0.416667  0.083333  0.000000     16.000000
  0.333333  0.416667  0.000000     16.000000
 -0.083333  0.333333  0.000000     16.000000
  0.333333 -0.083333  0.000000     16.000000
 -0.083333 -0.416667  0.000000     16.000000
 -0.416667 -0.333333  0.000000     16.000000
 -0.416667  0.083333  0.000000     16.000000
  0.500000 -0.416667  0.000000     16.000000
 -0.083333  0.500000  0.000000     16.000000
  0.500000 -0.083333  0.000000     16.000000
 -0.083333  0.416667  0.000000     16.000000
  0.416667  0.500000  0.000000     16.000000
 -0.250000  0.083333  0.000000     16.000000
 -0.333333 -0.250000  0.000000     16.000000
 -0.083333 -0.333333  0.000000     16.000000
 -0.333333 -0.083333  0.000000     16.000000
 -0.083333  0.250000  0.000000     16.000000
  0.250000  0.333333  0.000000     16.000000
 -0.083333  0.083333  0.000000     16.000000
 -0.166667 -0.083333  0.000000     16.000000
 -0.083333 -0.166667  0.000000     16.000000
  0.250000  0.250000  0.000000     16.000000
  0.000000  0.250000  0.000000     16.000000
 -0.250000  0.000000  0.000000     16.000000
  0.416667  0.250000  0.000000     16.000000
  0.166667  0.416667  0.000000     16.000000
 -0.250000  0.166667  0.000000     16.000000
  0.166667 -0.250000  0.000000     16.000000
 -0.250000 -0.416667  0.000000     16.000000
 -0.416667 -0.166667  0.000000     16.000000
 -0.416667  0.250000  0.000000     16.000000
  0.333333 -0.416667  0.000000     16.000000
 -0.250000  0.333333  0.000000     16.000000
  0.333333 -0.250000  0.000000     16.000000
 -0.250000  0.416667  0.000000     16.000000
  0.416667 -0.333333  0.000000     16.000000
 -0.250000  0.250000  0.000000     16.000000
  0.500000 -0.250000  0.000000     16.000000
 -0.250000  0.500000  0.000000     16.000000
  0.416667  0.416667  0.000000     16.000000
  0.000000  0.416667  0.000000     16.000000
 -0.416667 -0.000000  0.000000     16.000000
 -0.416667  0.416667  0.000000     16.000000
  0.166667 -0.416667  0.000000     16.000000
 -0.416667  0.166667  0.000000     16.000000
 
 Following cartesian coordinates:
            Coordinates               Weight
  0.009895  0.005713  0.000000     16.000000
  0.000000  0.011426  0.000000     16.000000
 -0.009895  0.005713  0.000000     16.000000
  0.029685 -0.005713  0.000000     16.000000
  0.019790  0.022852  0.000000     16.000000
 -0.009895  0.028565  0.000000     16.000000
  0.019790 -0.022852  0.000000     16.000000
 -0.009895 -0.028565  0.000000     16.000000
 -0.029685 -0.005713  0.000000     16.000000
  0.049476 -0.017139  0.000000     16.000000
  0.039581  0.034278  0.000000     16.000000
 -0.009895  0.051417  0.000000     16.000000
  0.039581 -0.034278  0.000000     16.000000
 -0.009895 -0.051417  0.000000     16.000000
 -0.049476 -0.017139  0.000000     16.000000
 -0.049476  0.039991  0.000000     16.000000
  0.059371 -0.091407  0.000000     16.000000
 -0.009895  0.074269  0.000000     16.000000
  0.059371 -0.045704  0.000000     16.000000
 -0.009895  0.062843  0.000000     16.000000
  0.049476  0.039991  0.000000     16.000000
 -0.029685  0.028565  0.000000     16.000000
 -0.039581 -0.011426  0.000000     16.000000
 -0.009895 -0.039991  0.000000     16.000000
 -0.039581  0.011426  0.000000     16.000000
 -0.009895  0.039991  0.000000     16.000000
  0.029685  0.028565  0.000000     16.000000
 -0.009895  0.017139  0.000000     16.000000
 -0.019790  0.000000  0.000000     16.000000
 -0.009895 -0.017139  0.000000     16.000000
  0.029685  0.017139  0.000000     16.000000
  0.000000  0.034278  0.000000     16.000000
 -0.029685  0.017139  0.000000     16.000000
  0.049476  0.005713  0.000000     16.000000
  0.019790  0.045704  0.000000     16.000000
 -0.029685  0.039991  0.000000     16.000000
  0.019790 -0.045704  0.000000     16.000000
 -0.029685 -0.039991  0.000000     16.000000
 -0.049476  0.005713  0.000000     16.000000
 -0.049476  0.062843  0.000000     16.000000
  0.039581 -0.079981  0.000000     16.000000
 -0.029685  0.062843  0.000000     16.000000
  0.039581 -0.057130  0.000000     16.000000
 -0.029685  0.074269  0.000000     16.000000
  0.049476 -0.074269  0.000000     16.000000
 -0.029685  0.051417  0.000000     16.000000
  0.059371 -0.068556  0.000000     16.000000
 -0.029685  0.085694  0.000000     16.000000
  0.049476  0.028565  0.000000     16.000000
  0.000000  0.057130  0.000000     16.000000
 -0.049476  0.028565  0.000000     16.000000
 -0.049476  0.085694  0.000000     16.000000
  0.019790 -0.068556  0.000000     16.000000
 -0.049476  0.051417  0.000000     16.000000
 


--------------------------------------------------------------------------------------------------------




 Dimension of arrays:
   k-points           NKPTS =     54   k-points in BZ     NKDIM =     54   number of bands    NBANDS=    225
   number of dos      NEDOS =    301   number of ions     NIONS =     42
   non local maximal  LDIM  =      6   non local SUM 2l+1 LMDIM =     18
   total plane-waves  NPLWV = 190512
   max r-space proj   IRMAX =   2088   max aug-charges    IRDMAX=   8786
   dimension x,y,z NGX =    42 NGY =   42 NGZ =  108
   dimension x,y,z NGXF=    84 NGYF=   84 NGZF=  216
   support grid    NGXF=    84 NGYF=   84 NGZF=  216
   ions per type =              36   2   4
 NGX,Y,Z   is equivalent  to a cutoff of   8.29,  8.29,  8.21 a.u.
 NGXF,Y,Z  is equivalent  to a cutoff of  16.58, 16.58, 16.41 a.u.


 I would recommend the setting:
   dimension x,y,z NGX =    41 NGY =   41 NGZ =  107
 SYSTEM =  unknown system                          
 POSCAR =  Pt  C  H                                

 Startparameter for this run:
   NWRITE =      2    write-flag & timer
   PREC   = normal    normal or accurate (medium, high low for compatibility)
   ISTART =      0    job   : 0-new  1-cont  2-samecut
   ICHARG =      2    charge: 1-file 2-atom 10-const
   ISPIN  =      1    spin polarized calculation?
   LNONCOLLINEAR =      F non collinear calculations
   LSORBIT =      F    spin-orbit coupling
   INIWAV =      1    electr: 0-lowe 1-rand  2-diag
   LASPH  =      F    aspherical Exc in radial PAW
   METAGGA=      F    non-selfconsistent MetaGGA calc.

 Electronic Relaxation 1
   ENCUT  =  400.0 eV  29.40 Ry    5.42 a.u.  13.73 13.73 35.67*2*pi/ulx,y,z
   ENINI  =  400.0     initial cutoff
   ENAUG  =  644.9 eV  augmentation charge cutoff
   NELM   =     60;   NELMIN=  4; NELMDL= -4     # of ELM steps 
   EDIFF  = 0.1E-05   stopping-criterion for ELM
   LREAL  =      T    real-space projection
   NLSPLINE    = F    spline interpolate recip. space projectors
   LCOMPAT=      F    compatible to vasp.4.4
   GGA_COMPAT  = T    GGA compatible to vasp.4.4-vasp.4.6
   LMAXPAW     = -100 max onsite density
   LMAXMIX     =    2 max onsite mixed and CHGCAR
   VOSKOWN=      0    Vosko Wilk Nusair interpolation
   ROPT   =   -0.00050  -0.00050  -0.00050
 Ionic relaxation
   EDIFFG = 0.1E-04   stopping-criterion for IOM
   NSW    =      0    number of steps for IOM
   NBLOCK =      1;   KBLOCK =      1    inner block; outer block 
   IBRION =     -1    ionic relax: 0-MD 1-quasi-New 2-CG
   NFREE  =      0    steps in history (QN), initial steepest desc. (CG)
   ISIF   =      2    stress and relaxation
   IWAVPR =     10    prediction:  0-non 1-charg 2-wave 3-comb
   ISYM   =      2    0-nonsym 1-usesym 2-fastsym
   LCORR  =      T    Harris-Foulkes like correction to forces

   POTIM  = 0.5000    time-step for ionic-motion
   TEIN   =    0.0    initial temperature
   TEBEG  =    0.0;   TEEND  =   0.0 temperature during run
   SMASS  =  -3.00    Nose mass-parameter (am)
   estimated Nose-frequenzy (Omega)   =  0.10E-29 period in steps =****** mass=  -0.162E-26a.u.
   SCALEE = 1.0000    scale energy and forces
   NPACO  =    256;   APACO  = 16.0  distance and # of slots for P.C.
   PSTRESS=    0.0 pullay stress

  Mass of Ions in am
   POMASS = 195.08 12.01  1.00
  Ionic Valenz
   ZVAL   =  10.00  4.00  1.00
  Atomic Wigner-Seitz radii
   RWIGS  =  -1.00 -1.00 -1.00
  virtual crystal weights 
   VCA    =   1.00  1.00  1.00
   NELECT =     372.0000    total number of electrons
   NUPDOWN=      -1.0000    fix difference up-down

 DOS related values:
   EMIN   =  10.00;   EMAX   =-10.00  energy-range for DOS
   EFERMI =   0.00
   ISMEAR =    -1;   SIGMA  =   0.10  broadening in eV -4-tet -1-fermi 0-gaus

 Electronic relaxation 2 (details)
   IALGO  =     68    algorithm
   LDIAG  =      T    sub-space diagonalisation (order eigenvalues)
   LSUBROT=      F    optimize rotation matrix (better conditioning)
   TURBO    =      0    0=normal 1=particle mesh
   IRESTART =      0    0=no restart 2=restart with 2 vectors
   NREBOOT  =      0    no. of reboots
   NMIN     =      0    reboot dimension
   EREF     =   0.00    reference energy to select bands
   IMIX   =      4    mixing-type and parameters
     AMIX     =   0.40;   BMIX     =  1.00
     AMIX_MAG =   1.60;   BMIX_MAG =  1.00
     AMIN     =   0.10
     WC   =   100.;   INIMIX=   1;  MIXPRE=   1;  MAXMIX= -45

 Intra band minimization:
   WEIMIN = 0.0000     energy-eigenvalue tresh-hold
   EBREAK =  0.11E-08  absolut break condition
   DEPER  =   0.30     relativ break condition  

   TIME   =   0.40     timestep for ELM

  volume/ion in A,a.u.               =      31.99       215.90
  Fermi-wavevector in a.u.,A,eV,Ry     =   1.066981  2.016303 15.489544  1.138449
  Thomas-Fermi vector in A             =   2.202583
 
 Write flags
   LWAVE  =      F    write WAVECAR
   LCHARG =      F    write CHGCAR
   LVTOT  =      F    write LOCPOT, total local potential
   LVHAR  =      F    write LOCPOT, Hartree potential only
   LELF   =      F    write electronic localiz. function (ELF)
   LORBIT =      0    0 simple, 1 ext, 2 COOP (PROOUT)


 Dipole corrections
   LMONO  =      F    monopole corrections only (constant potential shift)
   LDIPOL =      F    correct potential (dipole corrections)
   IDIPOL =      0    1-x, 2-y, 3-z, 4-all directions 
   EPSILON=  1.0000000 bulk dielectric constant

 Exchange correlation treatment:
   GGA     =    PE    GGA type
   LEXCH   =     8    internal setting for exchange type
   VOSKOWN=      0    Vosko Wilk Nusair interpolation
   LHFCALC =     F    Hartree Fock is set to
   LHFONE  =     F    Hartree Fock one center treatment
   AEXX    =    0.0000 exact exchange contribution

 Linear response parameters
   LEPSILON=     F    determine dielectric tensor
   LRPA    =     F    only Hartree local field effects (RPA)
   LNABLA  =     F    use nabla operator in PAW spheres
   LVEL    =     F    velocity operator in full k-point grid
   LINTERFAST=   F  fast interpolation
   KINTER  =     0    interpolate to denser k-point grid
   CSHIFT  =0.1000    complex shift for real part using Kramers Kronig
   OMEGAMAX=  -1.0    maximum frequency
   DEG_THRESHOLD= 0.2000000E-02 threshold for treating states as degnerate
   RTIME   =    0.100 relaxation time in fs

 Orbital magnetization related:
   ORBITALMAG=     F  switch on orbital magnetization
   LCHIMAG   =     F  perturbation theory with respect to B field
   DQ        =  0.001000  dq finite difference perturbation B field



--------------------------------------------------------------------------------------------------------


 Static calculation
 charge density and potential will be updated during run
 non-spin polarized calculation
 RMM-DIIS sequential band-by-band and
  variant of blocked Davidson during initial phase
 perform sub-space diagonalisation
    before iterative eigenvector-optimisation
 modified Broyden-mixing scheme, WC =      100.0
 initial mixing is a Kerker type mixing with AMIX =  0.4000 and BMIX =      1.0000
 Hartree-type preconditioning will be used
 using additional bands           39
 real space projection scheme for non local part
 use partial core corrections
 calculate Harris-corrections to forces 
   (improved forces if not selfconsistent)
 use gradient corrections 
 use of overlap-Matrix (Vanderbilt PP)
 Fermi-smearing in eV        SIGMA  =   0.10


--------------------------------------------------------------------------------------------------------


  energy-cutoff  :      400.00
  volume of cell :     1343.68
      direct lattice vectors                 reciprocal lattice vectors
     8.421641764  0.000000000  0.000000000     0.118741693 -0.068555548  0.000000000
     4.210820882  7.293355709  0.000000000     0.000000000  0.137111097  0.000000000
     0.000000000  0.000000000 21.876241706     0.000000000  0.000000000  0.045711691

  length of vectors
     8.421641764  8.421641764 21.876241706     0.137111097  0.137111097  0.045711691


 
 k-points in units of 2pi/SCALE and weight: KPOINTS created by Atomic Simulation Env
   0.00989514  0.00571296  0.00000000       0.019
   0.00000000  0.01142592  0.00000000       0.019
  -0.00989514  0.00571296  0.00000000       0.019
   0.02968542 -0.00571296  0.00000000       0.019
   0.01979028  0.02285185  0.00000000       0.019
  -0.00989514  0.02856481  0.00000000       0.019
   0.01979028 -0.02285185  0.00000000       0.019
  -0.00989514 -0.02856481  0.00000000       0.019
  -0.02968542 -0.00571296  0.00000000       0.019
   0.04947571 -0.01713889  0.00000000       0.019
   0.03958056  0.03427777  0.00000000       0.019
  -0.00989514  0.05141666  0.00000000       0.019
   0.03958056 -0.03427777  0.00000000       0.019
  -0.00989514 -0.05141666  0.00000000       0.019
  -0.04947571 -0.01713889  0.00000000       0.019
  -0.04947571  0.03999074  0.00000000       0.019
   0.05937085 -0.09140740  0.00000000       0.019
  -0.00989514  0.07426851  0.00000000       0.019
   0.05937085 -0.04570370  0.00000000       0.019
  -0.00989514  0.06284259  0.00000000       0.019
   0.04947571  0.03999074  0.00000000       0.019
  -0.02968542  0.02856481  0.00000000       0.019
  -0.03958056 -0.01142592  0.00000000       0.019
  -0.00989514 -0.03999074  0.00000000       0.019
  -0.03958056  0.01142592  0.00000000       0.019
  -0.00989514  0.03999074  0.00000000       0.019
   0.02968542  0.02856481  0.00000000       0.019
  -0.00989514  0.01713889  0.00000000       0.019
  -0.01979028  0.00000000  0.00000000       0.019
  -0.00989514 -0.01713889  0.00000000       0.019
   0.02968542  0.01713889  0.00000000       0.019
   0.00000000  0.03427777  0.00000000       0.019
  -0.02968542  0.01713889  0.00000000       0.019
   0.04947571  0.00571296  0.00000000       0.019
   0.01979028  0.04570370  0.00000000       0.019
  -0.02968542  0.03999074  0.00000000       0.019
   0.01979028 -0.04570370  0.00000000       0.019
  -0.02968542 -0.03999074  0.00000000       0.019
  -0.04947571  0.00571296  0.00000000       0.019
  -0.04947571  0.06284259  0.00000000       0.019
   0.03958056 -0.07998147  0.00000000       0.019
  -0.02968542  0.06284259  0.00000000       0.019
   0.03958056 -0.05712962  0.00000000       0.019
  -0.02968542  0.07426851  0.00000000       0.019
   0.04947571 -0.07426851  0.00000000       0.019
  -0.02968542  0.05141666  0.00000000       0.019
   0.05937085 -0.06855555  0.00000000       0.019
  -0.02968542  0.08569444  0.00000000       0.019
   0.04947571  0.02856481  0.00000000       0.019
   0.00000000  0.05712962  0.00000000       0.019
  -0.04947571  0.02856481  0.00000000       0.019
  -0.04947571  0.08569444  0.00000000       0.019
   0.01979028 -0.06855555  0.00000000       0.019
  -0.04947571  0.05141666  0.00000000       0.019
 
 k-points in reciprocal lattice and weights: KPOINTS created by Atomic Simulation Env
   0.08333333  0.08333333  0.00000000       0.019
   0.00000000  0.08333333  0.00000000       0.019
  -0.08333333  0.00000000  0.00000000       0.019
   0.25000000  0.08333333  0.00000000       0.019
   0.16666667  0.25000000  0.00000000       0.019
  -0.08333333  0.16666667  0.00000000       0.019
   0.16666667 -0.08333333  0.00000000       0.019
  -0.08333333 -0.25000000  0.00000000       0.019
  -0.25000000 -0.16666667  0.00000000       0.019
   0.41666667  0.08333333  0.00000000       0.019
   0.33333333  0.41666667  0.00000000       0.019
  -0.08333333  0.33333333  0.00000000       0.019
   0.33333333 -0.08333333  0.00000000       0.019
  -0.08333333 -0.41666667  0.00000000       0.019
  -0.41666667 -0.33333333  0.00000000       0.019
  -0.41666667  0.08333333  0.00000000       0.019
   0.50000000 -0.41666667  0.00000000       0.019
  -0.08333333  0.50000000  0.00000000       0.019
   0.50000000 -0.08333333  0.00000000       0.019
  -0.08333333  0.41666667  0.00000000       0.019
   0.41666667  0.50000000  0.00000000       0.019
  -0.25000000  0.08333333  0.00000000       0.019
  -0.33333333 -0.25000000  0.00000000       0.019
  -0.08333333 -0.33333333  0.00000000       0.019
  -0.33333333 -0.08333333  0.00000000       0.019
  -0.08333333  0.25000000  0.00000000       0.019
   0.25000000  0.33333333  0.00000000       0.019
  -0.08333333  0.08333333  0.00000000       0.019
  -0.16666667 -0.08333333  0.00000000       0.019
  -0.08333333 -0.16666667  0.00000000       0.019
   0.25000000  0.25000000  0.00000000       0.019
   0.00000000  0.25000000  0.00000000       0.019
  -0.25000000  0.00000000  0.00000000       0.019
   0.41666667  0.25000000  0.00000000       0.019
   0.16666667  0.41666667  0.00000000       0.019
  -0.25000000  0.16666667  0.00000000       0.019
   0.16666667 -0.25000000  0.00000000       0.019
  -0.25000000 -0.41666667  0.00000000       0.019
  -0.41666667 -0.16666667  0.00000000       0.019
  -0.41666667  0.25000000  0.00000000       0.019
   0.33333333 -0.41666667  0.00000000       0.019
  -0.25000000  0.33333333  0.00000000       0.019
   0.33333333 -0.25000000  0.00000000       0.019
  -0.25000000  0.41666667  0.00000000       0.019
   0.41666667 -0.33333333  0.00000000       0.019
  -0.25000000  0.25000000  0.00000000       0.019
   0.50000000 -0.25000000  0.00000000       0.019
  -0.25000000  0.50000000  0.00000000       0.019
   0.41666667  0.41666667  0.00000000       0.019
   0.00000000  0.41666667  0.00000000       0.019
  -0.41666667 -0.00000000  0.00000000       0.019
  -0.41666667  0.41666667  0.00000000       0.019
   0.16666667 -0.41666667  0.00000000       0.019
  -0.41666667  0.16666667  0.00000000       0.019
 
 position of ions in fractional coordinates (direct lattice) 
   0.00000000  0.00000000  0.34283768
   0.33333333  0.00000000  0.34283768
   0.66666667  0.00000000  0.34283768
   0.00000000  0.33333333  0.34283768
   0.33333333  0.33333333  0.34283768
   0.66666667  0.33333333  0.34283768
   0.00000000  0.66666667  0.34283768
   0.33333333  0.66666667  0.34283768
   0.66666667  0.66666667  0.34283768
   0.11111111  0.11111111  0.44761256
   0.44444444  0.11111111  0.44761256
   0.77777778  0.11111111  0.44761256
   0.11111111  0.44444444  0.44761256
   0.44444444  0.44444444  0.44761256
   0.77777778  0.44444444  0.44761256
   0.11111111  0.77777778  0.44761256
   0.44444444  0.77777778  0.44761256
   0.77777778  0.77777778  0.44761256
   0.89081184  0.22183169  0.55074309
   0.22410134  0.22340812  0.55188838
   0.55600762  0.22179499  0.55264501
   0.89011955  0.55610029  0.55134985
   0.22419268  0.55185140  0.55324374
   0.55583878  0.55688323  0.55075797
   0.88598494  0.89004293  0.55329412
   0.22158868  0.88756281  0.54985190
   0.55739148  0.89012140  0.55187006
   0.00188142  0.99973661  0.65623790
   0.33034401  0.99545032  0.65373816
   0.66639200  0.00463833  0.66519689
   0.00370872  0.33474723  0.65634965
   0.34032806  0.33132308  0.66518066
   0.67406012  0.33843552  0.65461862
   0.00265217  0.66705452  0.65732156
   0.33520924  0.66654733  0.65619223
   0.66970527  0.66876595  0.65639440
   0.49594417  0.16033706  0.73540382
   0.56876907  0.23103239  0.78476605
   0.42543641  0.09170351  0.75529954
   0.45438242  0.33076682  0.81346941
   0.64352780  0.29815134  0.76732478
   0.66262242  0.11640263  0.81460462
 
 position of ions in cartesian coordinates  (Angst):
   0.00000000  0.00000000  7.50000000
   2.80721392  0.00000000  7.50000000
   5.61442784  0.00000000  7.50000000
   1.40360696  2.43111857  7.50000000
   4.21082088  2.43111857  7.50000000
   7.01803480  2.43111857  7.50000000
   2.80721392  4.86223714  7.50000000
   5.61442784  4.86223714  7.50000000
   8.42164176  4.86223714  7.50000000
   1.40360696  0.81037286  9.79208057
   4.21082088  0.81037286  9.79208057
   7.01803480  0.81037286  9.79208057
   2.80721392  3.24149143  9.79208057
   5.61442784  3.24149143  9.79208057
   8.42164176  3.24149143  9.79208057
   4.21082088  5.67261000  9.79208057
   7.01803480  5.67261000  9.79208057
   9.82524872  5.67261000  9.79208057
   8.43619175  1.61789743 12.04818895
   2.82803278  1.62939491 12.07324355
   5.61643592  1.61762972 12.08979581
   9.83790669  4.05583722 12.06146263
   4.21181783  4.02484859 12.10289375
   7.02601060  4.06154747 12.04851448
  11.20925918  6.49139972 12.10399593
   5.60350846  6.47331127 12.02869306
   8.44229313  6.49197200 12.07284277
   4.22555641  7.29143469 14.35601899
   6.97370189  7.26017329 14.30133410
   5.63164588  0.03382897 14.55200790
   1.44079409  2.44143062 14.35846350
   4.26126313  2.41645710 14.55165293
   7.10178418  2.46833063 14.32059524
   2.83118269  4.86506586 14.37972526
   5.62972356  4.86136680 14.35501988
   8.45607147  4.87754797 14.35944246
   4.85181475  1.16939519 16.08787170
   5.76280534  1.68500141 17.16773177
   3.96902015  0.66882635 16.52311528
   5.21944583  2.41240008 17.79565340
   6.67502251  2.17452378 16.78618238
   6.07051930  0.84896577 17.82048758
 


--------------------------------------------------------------------------------------------------------


 k-point  1 :   0.0833 0.0833 0.0000  plane waves:   24413
 k-point  2 :   0.0000 0.0833 0.0000  plane waves:   24413
 k-point  3 :  -0.0833 0.0000 0.0000  plane waves:   24413
 k-point  4 :   0.2500 0.0833 0.0000  plane waves:   24407
 k-point  5 :   0.1667 0.2500 0.0000  plane waves:   24407
 k-point  6 :  -0.0833 0.1667 0.0000  plane waves:   24407
 k-point  7 :   0.1667-0.0833 0.0000  plane waves:   24407
 k-point  8 :  -0.0833-0.2500 0.0000  plane waves:   24407
 k-point  9 :  -0.2500-0.1667 0.0000  plane waves:   24407
 k-point 10 :   0.4167 0.0833 0.0000  plane waves:   24416
 k-point 11 :   0.3333 0.4167 0.0000  plane waves:   24416
 k-point 12 :  -0.0833 0.3333 0.0000  plane waves:   24416
 k-point 13 :   0.3333-0.0833 0.0000  plane waves:   24416
 k-point 14 :  -0.0833-0.4167 0.0000  plane waves:   24416
 k-point 15 :  -0.4167-0.3333 0.0000  plane waves:   24416
 k-point 16 :  -0.4167 0.0833 0.0000  plane waves:   24418
 k-point 17 :   0.5000-0.4167 0.0000  plane waves:   24418
 k-point 18 :  -0.0833 0.5000 0.0000  plane waves:   24418
 k-point 19 :   0.5000-0.0833 0.0000  plane waves:   24418
 k-point 20 :  -0.0833 0.4167 0.0000  plane waves:   24418
 k-point 21 :   0.4167 0.5000 0.0000  plane waves:   24418
 k-point 22 :  -0.2500 0.0833 0.0000  plane waves:   24416
 k-point 23 :  -0.3333-0.2500 0.0000  plane waves:   24416
 k-point 24 :  -0.0833-0.3333 0.0000  plane waves:   24416
 k-point 25 :  -0.3333-0.0833 0.0000  plane waves:   24416
 k-point 26 :  -0.0833 0.2500 0.0000  plane waves:   24416
 k-point 27 :   0.2500 0.3333 0.0000  plane waves:   24416
 k-point 28 :  -0.0833 0.0833 0.0000  plane waves:   24411
 k-point 29 :  -0.1667-0.0833 0.0000  plane waves:   24411
 k-point 30 :  -0.0833-0.1667 0.0000  plane waves:   24411
 k-point 31 :   0.2500 0.2500 0.0000  plane waves:   24440
 k-point 32 :   0.0000 0.2500 0.0000  plane waves:   24440
 k-point 33 :  -0.2500 0.0000 0.0000  plane waves:   24440
 k-point 34 :   0.4167 0.2500 0.0000  plane waves:   24406
 k-point 35 :   0.1667 0.4167 0.0000  plane waves:   24406
 k-point 36 :  -0.2500 0.1667 0.0000  plane waves:   24406
 k-point 37 :   0.1667-0.2500 0.0000  plane waves:   24406
 k-point 38 :  -0.2500-0.4167 0.0000  plane waves:   24406
 k-point 39 :  -0.4167-0.1667 0.0000  plane waves:   24406
 k-point 40 :  -0.4167 0.2500 0.0000  plane waves:   24402
 k-point 41 :   0.3333-0.4167 0.0000  plane waves:   24402
 k-point 42 :  -0.2500 0.3333 0.0000  plane waves:   24402
 k-point 43 :   0.3333-0.2500 0.0000  plane waves:   24402
 k-point 44 :  -0.2500 0.4167 0.0000  plane waves:   24402
 k-point 45 :   0.4167-0.3333 0.0000  plane waves:   24402
 k-point 46 :  -0.2500 0.2500 0.0000  plane waves:   24390
 k-point 47 :   0.5000-0.2500 0.0000  plane waves:   24390
 k-point 48 :  -0.2500 0.5000 0.0000  plane waves:   24390
 k-point 49 :   0.4167 0.4167 0.0000  plane waves:   24430
 k-point 50 :   0.0000 0.4167 0.0000  plane waves:   24430
 k-point 51 :  -0.4167-0.0000 0.0000  plane waves:   24430
 k-point 52 :  -0.4167 0.4167 0.0000  plane waves:   24404
 k-point 53 :   0.1667-0.4167 0.0000  plane waves:   24404
 k-point 54 :  -0.4167 0.1667 0.0000  plane waves:   24404

 maximum and minimum number of plane-waves per node :      6146     6048

 maximum number of plane-waves:     24440
 maximum index in each direction: 
   IXMAX=   14   IYMAX=   14   IZMAX=   35
   IXMIN=  -14   IYMIN=  -14   IZMIN=  -35

 WARNING: aliasing errors must be expected set NGX to  58 to avoid them
 WARNING: aliasing errors must be expected set NGY to  58 to avoid them
 WARNING: aliasing errors must be expected set NGZ to 142 to avoid them
 aliasing errors are usually negligible using standard VASP settings
 and one can safely disregard these warnings

 real space projection operators:
  total allocation   :      10341.35 KBytes
  max/ min on nodes  :       2726.49       2464.34


 parallel 3D FFT for wavefunctions:
    minimum data exchange during FFTs selected (reduces bandwidth)
 parallel 3D FFT for charge:
    minimum data exchange during FFTs selected (reduces bandwidth)


 total amount of memory used by VASP on root node   292284. kBytes
========================================================================

   base      :      30000. kBytes
   nonlr-proj:       4823. kBytes
   fftplans  :       4497. kBytes
   grid      :       7849. kBytes
   one-center:        171. kBytes
   wavefun   :     244944. kBytes
 
     INWAV:  cpu time    0.0000: real time    0.0000
 Broyden mixing: mesh for mixing (old mesh)
   NGX = 27   NGY = 27   NGZ = 71
  (NGX  = 84   NGY  = 84   NGZ  =216)
  gives a total of  51759 points

 initial charge density was supplied:
 charge density of overlapping atoms calculated
 number of electron     372.0000000 magnetization 
 keeping initial charge density in first step


--------------------------------------------------------------------------------------------------------


 Maximum index for non-local projection operator          595
 Maximum index for augmentation-charges          858 (set IRDMAX)


--------------------------------------------------------------------------------------------------------


 First call to EWALD:  gamma=   0.161
 Maximum number of real-space cells 4x 4x 2
 Maximum number of reciprocal cells 2x 2x 5

 FEWALD executed in parallel
    FEWALD:  cpu time    0.0030: real time    0.0030


----------------------------------------- Iteration    1(   1)  ---------------------------------------


    POTLOK:  cpu time    0.1760: real time    0.1765
    SETDIJ:  cpu time    0.0100: real time    0.0096
     EDDAV:  cpu time   70.2843: real time   70.8601
       DOS:  cpu time    0.0030: real time    0.0026
    --------------------------------------------
      LOOP:  cpu time   70.4753: real time   71.0612

 eigenvalue-minimisations  : 24330
 total energy-change (2. order) : 0.2197623E+04  (-0.1473849E+05)
 number of electron     372.0000000 magnetization 
 augmentation part      372.0000000 magnetization 

 Free energy of the ion-electron system (eV)
  ---------------------------------------------------
  alpha Z        PSCENC =       961.48010405
  Ewald energy   TEWEN  =     90826.92431663
  -Hartree energ DENC   =   -119292.07861011
  -exchange      EXHF   =         0.00000000
  -V(xc)+E(xc)   XCENC  =       156.87455689
  PAW double counting   =     25286.02747792   -24269.00514459
  entropy T*S    EENTRO =        -0.55556906
  eigenvalues    EBANDS =      1935.75704867
  atomic energy  EATOM  =     26592.19924351
  Solvation  Ediel_sol  =         0.00000000
  ---------------------------------------------------
  free energy    TOTEN  =      2197.62342389 eV

  energy without entropy =     2198.17899296  energy(sigma->0) =     2197.90120843


--------------------------------------------------------------------------------------------------------




----------------------------------------- Iteration    1(   2)  ---------------------------------------


     EDDAV:  cpu time   85.0121: real time   85.1411
       DOS:  cpu time    0.0030: real time    0.0032
    --------------------------------------------
      LOOP:  cpu time   85.0161: real time   85.2115

 eigenvalue-minimisations  : 28340
 total energy-change (2. order) :-0.2291006E+04  (-0.2121545E+04)
 number of electron     372.0000000 magnetization 
 augmentation part      372.0000000 magnetization 

 Free energy of the ion-electron system (eV)
  ---------------------------------------------------
  alpha Z        PSCENC =       961.48010405
  Ewald energy   TEWEN  =     90826.92431663
  -Hartree energ DENC   =   -119292.07861011
  -exchange      EXHF   =         0.00000000
  -V(xc)+E(xc)   XCENC  =       156.87455689
  PAW double counting   =     25286.02747792   -24269.00514459
  entropy T*S    EENTRO =        -1.10565757
  eigenvalues    EBANDS =      -354.69884501
  atomic energy  EATOM  =     26592.19924351
  Solvation  Ediel_sol  =         0.00000000
  ---------------------------------------------------
  free energy    TOTEN  =       -93.38255829 eV

  energy without entropy =      -92.27690072  energy(sigma->0) =      -92.82972950


--------------------------------------------------------------------------------------------------------




----------------------------------------- Iteration    1(   3)  ---------------------------------------


     EDDAV:  cpu time   86.0909: real time   86.3534
       DOS:  cpu time    0.0040: real time    0.0035
    --------------------------------------------
      LOOP:  cpu time   86.0959: real time   86.4657

 eigenvalue-minimisations  : 29710
 total energy-change (2. order) :-0.1606792E+03  (-0.1457995E+03)
 number of electron     372.0000000 magnetization 
 augmentation part      372.0000000 magnetization 

 Free energy of the ion-electron system (eV)
  ---------------------------------------------------
  alpha Z        PSCENC =       961.48010405
  Ewald energy   TEWEN  =     90826.92431663
  -Hartree energ DENC   =   -119292.07861011
  -exchange      EXHF   =         0.00000000
  -V(xc)+E(xc)   XCENC  =       156.87455689
  PAW double counting   =     25286.02747792   -24269.00514459
  entropy T*S    EENTRO =        -1.89218117
  eigenvalues    EBANDS =      -514.59148264
  atomic energy  EATOM  =     26592.19924351
  Solvation  Ediel_sol  =         0.00000000
  ---------------------------------------------------
  free energy    TOTEN  =      -254.06171952 eV

  energy without entropy =     -252.16953835  energy(sigma->0) =     -253.11562894


--------------------------------------------------------------------------------------------------------




----------------------------------------- Iteration    1(   4)  ---------------------------------------


     EDDAV:  cpu time   88.0816: real time   88.0985
       DOS:  cpu time    0.0040: real time    0.0037
    CHARGE:  cpu time    2.3206: real time    2.3355
    MIXING:  cpu time    0.0030: real time    0.0022
    --------------------------------------------
      LOOP:  cpu time   90.4103: real time   90.5290

 eigenvalue-minimisations  : 30980
 total energy-change (2. order) :-0.6819546E+01  (-0.6612439E+01)
 number of electron     372.0000026 magnetization 
 augmentation part      104.7189584 magnetization 

 Broyden mixing:
  rms(total) = 0.63027E+01    rms(broyden)= 0.63026E+01
  rms(prec ) = 0.64257E+01
  weight for this iteration     100.00

 Free energy of the ion-electron system (eV)
  ---------------------------------------------------
  alpha Z        PSCENC =       961.48010405
  Ewald energy   TEWEN  =     90826.92431663
  -Hartree energ DENC   =   -119292.07861011
  -exchange      EXHF   =         0.00000000
  -V(xc)+E(xc)   XCENC  =       156.87455689
  PAW double counting   =     25286.02747792   -24269.00514459
  entropy T*S    EENTRO =        -1.94956409
  eigenvalues    EBANDS =      -521.35364612
  atomic energy  EATOM  =     26592.19924351
  Solvation  Ediel_sol  =         0.00000000
  ---------------------------------------------------
  free energy    TOTEN  =      -260.88126592 eV

  energy without entropy =     -258.93170183  energy(sigma->0) =     -259.90648388


--------------------------------------------------------------------------------------------------------




----------------------------------------- Iteration    1(   5)  ---------------------------------------


    POTLOK:  cpu time    0.1120: real time    0.1295
    SETDIJ:  cpu time    0.0090: real time    0.0092
    EDDIAG:  cpu time   10.7514: real time   10.8452
  RMM-DIIS:  cpu time   29.2646: real time   29.5716
    ORTHCH:  cpu time    3.0805: real time    3.1135
       DOS:  cpu time    0.0030: real time    0.0035
    CHARGE:  cpu time    2.3316: real time    2.3296
    MIXING:  cpu time    0.0020: real time    0.0022
    --------------------------------------------
      LOOP:  cpu time   45.5551: real time   46.0874

 eigenvalue-minimisations  : 25902
 total energy-change (2. order) : 0.1254207E+02  (-0.5459320E+01)
 number of electron     372.0000055 magnetization 
 augmentation part      111.3698279 magnetization 

 Broyden mixing:
  rms(total) = 0.43569E+01    rms(broyden)= 0.43568E+01
  rms(prec ) = 0.46236E+01
  weight for this iteration     100.00

 eigenvalues of (default mixing * dielectric matrix)
  average eigenvalue GAMMA=   1.3060
  1.3060

 Free energy of the ion-electron system (eV)
  ---------------------------------------------------
  alpha Z        PSCENC =       961.48010405
  Ewald energy   TEWEN  =     90826.92431663
  -Hartree energ DENC   =   -118864.94821775
  -exchange      EXHF   =         0.00000000
  -V(xc)+E(xc)   XCENC  =       148.57469614
  PAW double counting   =     28066.17264374   -27102.07490554
  entropy T*S    EENTRO =        -2.04198050
  eigenvalues    EBANDS =      -874.62509752
  atomic energy  EATOM  =     26592.19924351
  Solvation  Ediel_sol  =         0.00000000
  ---------------------------------------------------
  free energy    TOTEN  =      -248.33919724 eV

  energy without entropy =     -246.29721673  energy(sigma->0) =     -247.31820698


--------------------------------------------------------------------------------------------------------




----------------------------------------- Iteration    1(   6)  ---------------------------------------


    POTLOK:  cpu time    0.0560: real time    0.0561
    SETDIJ:  cpu time    0.0090: real time    0.0093
    EDDIAG:  cpu time   10.8334: real time   10.8371
  RMM-DIIS:  cpu time   30.8673: real time   30.9597
    ORTHCH:  cpu time    3.0395: real time    3.0626
       DOS:  cpu time    0.0030: real time    0.0033
    CHARGE:  cpu time    2.3596: real time    2.4192
    MIXING:  cpu time    0.0140: real time    0.0133
    --------------------------------------------
      LOOP:  cpu time   47.1828: real time   47.3834

 eigenvalue-minimisations  : 25655
 total energy-change (2. order) :-0.3839376E+02  (-0.7344608E+01)
 number of electron     371.9999995 magnetization 
 augmentation part      109.2529481 magnetization 

 Broyden mixing:
  rms(total) = 0.55520E+01    rms(broyden)= 0.55519E+01
  rms(prec ) = 0.67211E+01
  weight for this iteration     100.00

 eigenvalues of (default mixing * dielectric matrix)
  average eigenvalue GAMMA=   1.1354
  1.9909  0.2800

 Free energy of the ion-electron system (eV)
  ---------------------------------------------------
  alpha Z        PSCENC =       961.48010405
  Ewald energy   TEWEN  =     90826.92431663
  -Hartree energ DENC   =   -119177.88424045
  -exchange      EXHF   =         0.00000000
  -V(xc)+E(xc)   XCENC  =       146.56437644
  PAW double counting   =     30067.54089201   -29123.72169078
  entropy T*S    EENTRO =        -1.21318074
  eigenvalues    EBANDS =      -578.62278149
  atomic energy  EATOM  =     26592.19924351
  Solvation  Ediel_sol  =         0.00000000
  ---------------------------------------------------
  free energy    TOTEN  =      -286.73296082 eV

  energy without entropy =     -285.51978008  energy(sigma->0) =     -286.12637045


--------------------------------------------------------------------------------------------------------




----------------------------------------- Iteration    1(   7)  ---------------------------------------


    POTLOK:  cpu time    1.7557: real time    1.7558
    SETDIJ:  cpu time    0.1790: real time    0.1791
    EDDIAG:  cpu time   12.7621: real time   12.7599
  RMM-DIIS:  cpu time   28.6356: real time   28.6725
    ORTHCH:  cpu time    3.0345: real time    3.0431
       DOS:  cpu time    0.0040: real time    0.0036
    CHARGE:  cpu time    2.2987: real time    2.2973
    MIXING:  cpu time    0.0030: real time    0.0023
    --------------------------------------------
      LOOP:  cpu time   48.6886: real time   48.7639

 eigenvalue-minimisations  : 25156
 total energy-change (2. order) : 0.4290277E+02  (-0.2647214E+01)
 number of electron     372.0000030 magnetization 
 augmentation part      112.6784938 magnetization 

 Broyden mixing:
  rms(total) = 0.11346E+01    rms(broyden)= 0.11344E+01
  rms(prec ) = 0.12930E+01
  weight for this iteration     100.00

 eigenvalues of (default mixing * dielectric matrix)
  average eigenvalue GAMMA=   1.0815
  2.0131  0.9313  0.2999

 Free energy of the ion-electron system (eV)
  ---------------------------------------------------
  alpha Z        PSCENC =       961.48010405
  Ewald energy   TEWEN  =     90826.92431663
  -Hartree energ DENC   =   -118919.19988586
  -exchange      EXHF   =         0.00000000
  -V(xc)+E(xc)   XCENC  =       145.36573691
  PAW double counting   =     31878.54410443   -30957.30069067
  entropy T*S    EENTRO =        -2.05631197
  eigenvalues    EBANDS =      -769.78681216
  atomic energy  EATOM  =     26592.19924351
  Solvation  Ediel_sol  =         0.00000000
  ---------------------------------------------------
  free energy    TOTEN  =      -243.83019513 eV

  energy without entropy =     -241.77388316  energy(sigma->0) =     -242.80203915


--------------------------------------------------------------------------------------------------------




----------------------------------------- Iteration    1(   8)  ---------------------------------------


    POTLOK:  cpu time    0.0580: real time    0.0579
    SETDIJ:  cpu time    0.0090: real time    0.0092
    EDDIAG:  cpu time   10.8683: real time   10.8619
  RMM-DIIS:  cpu time   28.7126: real time   28.8708
    ORTHCH:  cpu time    2.9985: real time    3.0063
       DOS:  cpu time    0.0030: real time    0.0036
    CHARGE:  cpu time    2.4376: real time    2.4354
    MIXING:  cpu time    0.0020: real time    0.0024
    --------------------------------------------
      LOOP:  cpu time   45.0911: real time   45.2698

 eigenvalue-minimisations  : 25332
 total energy-change (2. order) :-0.1883572E+01  (-0.1371991E+01)
 number of electron     372.0000035 magnetization 
 augmentation part      112.3176542 magnetization 

 Broyden mixing:
  rms(total) = 0.18207E+01    rms(broyden)= 0.18206E+01
  rms(prec ) = 0.23152E+01
  weight for this iteration     100.00

 eigenvalues of (default mixing * dielectric matrix)
  average eigenvalue GAMMA=   0.9413
  2.0961  1.0779  0.2956  0.2956

 Free energy of the ion-electron system (eV)
  ---------------------------------------------------
  alpha Z        PSCENC =       961.48010405
  Ewald energy   TEWEN  =     90826.92431663
  -Hartree energ DENC   =   -118948.11470852
  -exchange      EXHF   =         0.00000000
  -V(xc)+E(xc)   XCENC  =       146.24238669
  PAW double counting   =     32209.20046487   -31288.39145021
  entropy T*S    EENTRO =        -1.97754577
  eigenvalues    EBANDS =      -743.27657887
  atomic energy  EATOM  =     26592.19924351
  Solvation  Ediel_sol  =         0.00000000
  ---------------------------------------------------
  free energy    TOTEN  =      -245.71376763 eV

  energy without entropy =     -243.73622186  energy(sigma->0) =     -244.72499475


--------------------------------------------------------------------------------------------------------




----------------------------------------- Iteration    1(   9)  ---------------------------------------


    POTLOK:  cpu time    0.6619: real time    0.6622
    SETDIJ:  cpu time    0.0090: real time    0.0092
    EDDIAG:  cpu time   10.7774: real time   10.8284
  RMM-DIIS:  cpu time   29.0926: real time   29.3235
    ORTHCH:  cpu time    2.9396: real time    2.9381
       DOS:  cpu time    0.0040: real time    0.0036
    CHARGE:  cpu time    2.3256: real time    2.3239
    MIXING:  cpu time    0.0020: real time    0.0025
    --------------------------------------------
      LOOP:  cpu time   45.8140: real time   46.1269

 eigenvalue-minimisations  : 26090
 total energy-change (2. order) :-0.2430655E+01  (-0.3351746E+00)
 number of electron     372.0000046 magnetization 
 augmentation part      112.0629952 magnetization 

 Broyden mixing:
  rms(total) = 0.23004E+01    rms(broyden)= 0.23003E+01
  rms(prec ) = 0.36467E+01
  weight for this iteration     100.00

 eigenvalues of (default mixing * dielectric matrix)
  average eigenvalue GAMMA=   0.7973
  2.1422  1.1114  0.3133  0.3133  0.1063

 Free energy of the ion-electron system (eV)
  ---------------------------------------------------
  alpha Z        PSCENC =       961.48010405
  Ewald energy   TEWEN  =     90826.92431663
  -Hartree energ DENC   =   -118949.93909775
  -exchange      EXHF   =         0.00000000
  -V(xc)+E(xc)   XCENC  =       146.39918257
  PAW double counting   =     32355.26600025   -31435.40666857
  entropy T*S    EENTRO =        -1.74524266
  eigenvalues    EBANDS =      -743.32226056
  atomic energy  EATOM  =     26592.19924351
  Solvation  Ediel_sol  =         0.00000000
  ---------------------------------------------------
  free energy    TOTEN  =      -248.14442255 eV

  energy without entropy =     -246.39917989  energy(sigma->0) =     -247.27180122


--------------------------------------------------------------------------------------------------------




----------------------------------------- Iteration    1(  10)  ---------------------------------------


    POTLOK:  cpu time    0.0580: real time    0.0579
    SETDIJ:  cpu time    0.0090: real time    0.0095
    EDDIAG:  cpu time   10.7354: real time   10.7575
  RMM-DIIS:  cpu time   29.7405: real time   29.8140
    ORTHCH:  cpu time    3.0295: real time    3.1192
       DOS:  cpu time    0.0040: real time    0.0038
    CHARGE:  cpu time    2.2887: real time    2.3467
    MIXING:  cpu time    0.0020: real time    0.0026
    --------------------------------------------
      LOOP:  cpu time   45.8680: real time   46.1341

 eigenvalue-minimisations  : 25796
 total energy-change (2. order) : 0.5706539E+01  (-0.1179871E+00)
 number of electron     372.0000036 magnetization 
 augmentation part      112.1730826 magnetization 

 Broyden mixing:
  rms(total) = 0.48156E+00    rms(broyden)= 0.48140E+00
  rms(prec ) = 0.53795E+00
  weight for this iteration     100.00

 eigenvalues of (default mixing * dielectric matrix)
  average eigenvalue GAMMA=   0.7309
  2.1510  1.0974  0.3716  0.3716  0.2949  0.0992

 Free energy of the ion-electron system (eV)
  ---------------------------------------------------
  alpha Z        PSCENC =       961.48010405
  Ewald energy   TEWEN  =     90826.92431663
  -Hartree energ DENC   =   -118959.73923278
  -exchange      EXHF   =         0.00000000
  -V(xc)+E(xc)   XCENC  =       146.42185114
  PAW double counting   =     32435.22445544   -31516.08178437
  entropy T*S    EENTRO =        -2.09001173
  eigenvalues    EBANDS =      -726.77682509
  atomic energy  EATOM  =     26592.19924351
  Solvation  Ediel_sol  =         0.00000000
  ---------------------------------------------------
  free energy    TOTEN  =      -242.43788321 eV

  energy without entropy =     -240.34787148  energy(sigma->0) =     -241.39287734


--------------------------------------------------------------------------------------------------------




----------------------------------------- Iteration    1(  11)  ---------------------------------------


    POTLOK:  cpu time    0.2070: real time    0.2074
    SETDIJ:  cpu time    0.0090: real time    0.0093
    EDDIAG:  cpu time   10.8354: real time   10.8266
  RMM-DIIS:  cpu time   30.7353: real time   31.2097
    ORTHCH:  cpu time    3.0045: real time    3.0119
       DOS:  cpu time    0.0030: real time    0.0036
    CHARGE:  cpu time    2.3486: real time    2.3462
    MIXING:  cpu time    0.0020: real time    0.0028
    --------------------------------------------
      LOOP:  cpu time   47.1458: real time   47.6422

 eigenvalue-minimisations  : 25905
 total energy-change (2. order) : 0.1852588E+00  (-0.4137585E-01)
 number of electron     372.0000037 magnetization 
 augmentation part      112.1895817 magnetization 

 Broyden mixing:
  rms(total) = 0.33038E+00    rms(broyden)= 0.33036E+00
  rms(prec ) = 0.36917E+00
  weight for this iteration     100.00

 eigenvalues of (default mixing * dielectric matrix)
  average eigenvalue GAMMA=   0.7263
  2.1535  0.9972  0.8258  0.4527  0.2775  0.2775  0.1000

 Free energy of the ion-electron system (eV)
  ---------------------------------------------------
  alpha Z        PSCENC =       961.48010405
  Ewald energy   TEWEN  =     90826.92431663
  -Hartree energ DENC   =   -118961.67710176
  -exchange      EXHF   =         0.00000000
  -V(xc)+E(xc)   XCENC  =       146.44157851
  PAW double counting   =     32446.11445872   -31527.12841309
  entropy T*S    EENTRO =        -2.10836320
  eigenvalues    EBANDS =      -724.49844776
  atomic energy  EATOM  =     26592.19924351
  Solvation  Ediel_sol  =         0.00000000
  ---------------------------------------------------
  free energy    TOTEN  =      -242.25262439 eV

  energy without entropy =     -240.14426120  energy(sigma->0) =     -241.19844279


--------------------------------------------------------------------------------------------------------




----------------------------------------- Iteration    1(  12)  ---------------------------------------


    POTLOK:  cpu time    0.0590: real time    0.0592
    SETDIJ:  cpu time    0.0090: real time    0.0094
    EDDIAG:  cpu time   10.7964: real time   10.7879
  RMM-DIIS:  cpu time   30.9873: real time   31.4653
    ORTHCH:  cpu time    2.9865: real time    3.0047
       DOS:  cpu time    0.0240: real time    0.0236
    CHARGE:  cpu time    2.4036: real time    2.4024
    MIXING:  cpu time    0.0020: real time    0.0029
    --------------------------------------------
      LOOP:  cpu time   47.2698: real time   47.7778

 eigenvalue-minimisations  : 26919
 total energy-change (2. order) : 0.3643533E-02  (-0.1056602E-01)
 number of electron     372.0000037 magnetization 
 augmentation part      112.1926284 magnetization 

 Broyden mixing:
  rms(total) = 0.31673E+00    rms(broyden)= 0.31673E+00
  rms(prec ) = 0.36950E+00
  weight for this iteration     100.00

 eigenvalues of (default mixing * dielectric matrix)
  average eigenvalue GAMMA=   0.7149
  2.2003  0.9745  0.9745  0.5422  0.3331  0.3331  0.2623  0.0993

 Free energy of the ion-electron system (eV)
  ---------------------------------------------------
  alpha Z        PSCENC =       961.48010405
  Ewald energy   TEWEN  =     90826.92431663
  -Hartree energ DENC   =   -118966.25721866
  -exchange      EXHF   =         0.00000000
  -V(xc)+E(xc)   XCENC  =       146.50749554
  PAW double counting   =     32447.93663926   -31528.98738575
  entropy T*S    EENTRO =        -2.11086402
  eigenvalues    EBANDS =      -719.94131142
  atomic energy  EATOM  =     26592.19924351
  Solvation  Ediel_sol  =         0.00000000
  ---------------------------------------------------
  free energy    TOTEN  =      -242.24898086 eV

  energy without entropy =     -240.13811684  energy(sigma->0) =     -241.19354885


--------------------------------------------------------------------------------------------------------




----------------------------------------- Iteration    1(  13)  ---------------------------------------


    POTLOK:  cpu time    1.5468: real time    1.5457
    SETDIJ:  cpu time    0.2510: real time    0.2503
    EDDIAG:  cpu time   11.9082: real time   11.9912
  RMM-DIIS:  cpu time   29.4345: real time   29.6885
    ORTHCH:  cpu time    2.9655: real time    3.0152
       DOS:  cpu time    0.0030: real time    0.0034
    CHARGE:  cpu time    2.2607: real time    2.3340
    MIXING:  cpu time    0.0030: real time    0.0031
    --------------------------------------------
      LOOP:  cpu time   48.3746: real time   48.9170

 eigenvalue-minimisations  : 25764
 total energy-change (2. order) : 0.2882183E-01  (-0.5983687E-02)
 number of electron     372.0000036 magnetization 
 augmentation part      112.1791122 magnetization 

 Broyden mixing:
  rms(total) = 0.22536E+00    rms(broyden)= 0.22536E+00
  rms(prec ) = 0.27060E+00
  weight for this iteration     100.00

 eigenvalues of (default mixing * dielectric matrix)
  average eigenvalue GAMMA=   0.7798
  2.3334  1.2433  1.2433  0.8071  0.4284  0.3068  0.3068  0.2500  0.0994

 Free energy of the ion-electron system (eV)
  ---------------------------------------------------
  alpha Z        PSCENC =       961.48010405
  Ewald energy   TEWEN  =     90826.92431663
  -Hartree energ DENC   =   -118973.24150973
  -exchange      EXHF   =         0.00000000
  -V(xc)+E(xc)   XCENC  =       146.53392784
  PAW double counting   =     32466.98845394   -31548.25999939
  entropy T*S    EENTRO =        -2.10475610
  eigenvalues    EBANDS =      -712.73993978
  atomic energy  EATOM  =     26592.19924351
  Solvation  Ediel_sol  =         0.00000000
  ---------------------------------------------------
  free energy    TOTEN  =      -242.22015903 eV

  energy without entropy =     -240.11540293  energy(sigma->0) =     -241.16778098


--------------------------------------------------------------------------------------------------------




----------------------------------------- Iteration    1(  14)  ---------------------------------------


    POTLOK:  cpu time    0.0590: real time    0.0595
    SETDIJ:  cpu time    0.0090: real time    0.0094
    EDDIAG:  cpu time   10.7504: real time   10.8413
  RMM-DIIS:  cpu time   30.2694: real time   30.3377
    ORTHCH:  cpu time    2.9546: real time    3.0254
       DOS:  cpu time    0.0040: real time    0.0036
    CHARGE:  cpu time    2.2677: real time    2.3175
    MIXING:  cpu time    0.0040: real time    0.0032
    --------------------------------------------
      LOOP:  cpu time   46.3200: real time   46.6202

 eigenvalue-minimisations  : 25743
 total energy-change (2. order) : 0.2286414E-01  (-0.4950293E-02)
 number of electron     372.0000034 magnetization 
 augmentation part      112.1390015 magnetization 

 Broyden mixing:
  rms(total) = 0.11835E+00    rms(broyden)= 0.11834E+00
  rms(prec ) = 0.13988E+00
  weight for this iteration     100.00

 eigenvalues of (default mixing * dielectric matrix)
  average eigenvalue GAMMA=   0.7725
  2.2959  1.3978  1.3978  0.8687  0.4796  0.0994  0.3307  0.3307  0.2787  0.2457

 Free energy of the ion-electron system (eV)
  ---------------------------------------------------
  alpha Z        PSCENC =       961.48010405
  Ewald energy   TEWEN  =     90826.92431663
  -Hartree energ DENC   =   -118988.78523741
  -exchange      EXHF   =         0.00000000
  -V(xc)+E(xc)   XCENC  =       146.59494473
  PAW double counting   =     32489.09518899   -31570.59938978
  entropy T*S    EENTRO =        -2.10244841
  eigenvalues    EBANDS =      -697.00401722
  atomic energy  EATOM  =     26592.19924351
  Solvation  Ediel_sol  =         0.00000000
  ---------------------------------------------------
  free energy    TOTEN  =      -242.19729490 eV

  energy without entropy =     -240.09484649  energy(sigma->0) =     -241.14607069


--------------------------------------------------------------------------------------------------------




----------------------------------------- Iteration    1(  15)  ---------------------------------------


    POTLOK:  cpu time    0.3999: real time    0.4001
    SETDIJ:  cpu time    0.0090: real time    0.0093
    EDDIAG:  cpu time   10.7564: real time   10.8561
  RMM-DIIS:  cpu time   29.7135: real time   30.4489
    ORTHCH:  cpu time    2.9835: real time    3.0230
       DOS:  cpu time    0.0040: real time    0.0037
    CHARGE:  cpu time    2.3196: real time    2.3371
    MIXING:  cpu time    0.0040: real time    0.0036
    --------------------------------------------
      LOOP:  cpu time   46.1910: real time   47.1612

 eigenvalue-minimisations  : 25805
 total energy-change (2. order) : 0.1144945E-01  (-0.1464399E-02)
 number of electron     372.0000034 magnetization 
 augmentation part      112.1184298 magnetization 

 Broyden mixing:
  rms(total) = 0.70862E-01    rms(broyden)= 0.70860E-01
  rms(prec ) = 0.82849E-01
  weight for this iteration     100.00

 eigenvalues of (default mixing * dielectric matrix)
  average eigenvalue GAMMA=   0.7857
  2.1869  2.1869  1.1653  0.7568  0.6501  0.0994  0.3820  0.3820  0.3039  0.2869
  0.2427

 Free energy of the ion-electron system (eV)
  ---------------------------------------------------
  alpha Z        PSCENC =       961.48010405
  Ewald energy   TEWEN  =     90826.92431663
  -Hartree energ DENC   =   -118995.07638508
  -exchange      EXHF   =         0.00000000
  -V(xc)+E(xc)   XCENC  =       146.64429337
  PAW double counting   =     32472.30108425   -31553.58856289
  entropy T*S    EENTRO =        -2.10405630
  eigenvalues    EBANDS =      -690.96588297
  atomic energy  EATOM  =     26592.19924351
  Solvation  Ediel_sol  =         0.00000000
  ---------------------------------------------------
  free energy    TOTEN  =      -242.18584544 eV

  energy without entropy =     -240.08178914  energy(sigma->0) =     -241.13381729


--------------------------------------------------------------------------------------------------------




----------------------------------------- Iteration    1(  16)  ---------------------------------------


    POTLOK:  cpu time    0.1380: real time    0.1384
    SETDIJ:  cpu time    0.0090: real time    0.0094
    EDDIAG:  cpu time   10.7094: real time   10.7026
  RMM-DIIS:  cpu time   30.0554: real time   30.0609
    ORTHCH:  cpu time    3.0095: real time    3.0176
       DOS:  cpu time    0.0260: real time    0.0256
    CHARGE:  cpu time    2.3946: real time    2.3935
    MIXING:  cpu time    0.0040: real time    0.0041
    --------------------------------------------
      LOOP:  cpu time   46.3480: real time   46.3743

 eigenvalue-minimisations  : 26056
 total energy-change (2. order) : 0.4137766E-02  (-0.2671163E-03)
 number of electron     372.0000035 magnetization 
 augmentation part      112.1061244 magnetization 

 Broyden mixing:
  rms(total) = 0.32453E-01    rms(broyden)= 0.32452E-01
  rms(prec ) = 0.37841E-01
  weight for this iteration     100.00

 eigenvalues of (default mixing * dielectric matrix)
  average eigenvalue GAMMA=   0.7957
  2.3222  2.3222  1.1983  0.7035  0.6568  0.6568  0.0994  0.4231  0.3227  0.3227
  0.2793  0.2418

 Free energy of the ion-electron system (eV)
  ---------------------------------------------------
  alpha Z        PSCENC =       961.48010405
  Ewald energy   TEWEN  =     90826.92431663
  -Hartree energ DENC   =   -118999.83714908
  -exchange      EXHF   =         0.00000000
  -V(xc)+E(xc)   XCENC  =       146.68884184
  PAW double counting   =     32449.35359057   -31530.36725153
  entropy T*S    EENTRO =        -2.10661412
  eigenvalues    EBANDS =      -686.51678954
  atomic energy  EATOM  =     26592.19924351
  Solvation  Ediel_sol  =         0.00000000
[...]
    172       1.1834      1.91121
    173       1.1884      1.90690
    174       1.2169      1.87799
    175       1.2417      1.84632
    176       1.2726      1.79635
    177       1.2858      1.77098
    178       1.3127      1.71040
    179       1.3640      1.55903
    180       1.4133      1.36695
    181       1.4361      1.26460
    182       1.4414      1.23968
    183       1.4548      1.17588
    184       1.4835      1.03412
    185       1.5037      0.93308
    186       1.5181      0.86180
    187       1.6247      0.41377
    188       1.6801      0.26079
    189       1.6984      0.22195
    190       1.7368      0.15673
    191       1.7492      0.13969
    192       1.7613      0.12475
    193       1.7674      0.11782
    194       1.8026      0.08438
    195       1.8278      0.06619
    196       1.8643      0.04640
    197       2.4238      0.00018
    198       2.5796      0.00004
    199       2.9454      0.00000
    200       2.9540      0.00000
    201       2.9661      0.00000
    202       3.0244      0.00000
    203       3.1949      0.00000
    204       3.3189      0.00000
    205       3.4724      0.00000
    206       3.5678      0.00000
    207       3.7665      0.00000
    208       3.8064      0.00000
    209       3.9422      0.00000
    210       4.2406      0.00000
    211       4.3227      0.00000
    212       4.3601      0.00000
    213       4.4005      0.00000
    214       4.5443      0.00000
    215       4.6016      0.00000
    216       4.7215      0.00000
    217       4.8740      0.00000
    218       5.0309      0.00000
    219       5.1693      0.00000
    220       5.2807      0.00000
    221       5.7924      0.00000
    222       6.1101      0.00000
    223       6.1534      0.00000
    224       6.6404      0.00000
    225       6.7662      0.00000


--------------------------------------------------------------------------------------------------------


 soft charge-density along one line, spin component           1
         0         1         2         3         4         5         6         7         8         9
 total charge-density along one line
 
 pseudopotential strength for first ion, spin component:           1
 -6.013   0.000   0.000  -0.012   0.000  -6.130   0.000   0.000
  0.000  -5.909  -0.001   0.000  -0.010   0.000  -6.028  -0.001
  0.000  -0.001  -5.905   0.000  -0.001   0.000  -0.001  -6.024
 -0.012   0.000   0.000  -5.909  -0.000  -0.012   0.000   0.000
  0.000  -0.010  -0.001  -0.000  -6.013   0.000  -0.010  -0.001
 -6.130   0.000   0.000  -0.012   0.000  -6.229   0.000   0.000
  0.000  -6.028  -0.001   0.000  -0.010   0.000  -6.131  -0.001
  0.000  -0.001  -6.024   0.000  -0.001   0.000  -0.001  -6.127
 -0.012   0.000   0.000  -6.028  -0.000  -0.011   0.000   0.000
  0.000  -0.010  -0.001  -0.000  -6.129   0.000  -0.010  -0.001
 -0.000   0.001  -0.032  -0.000  -0.000  -0.000   0.001  -0.031
 -0.000   0.001  -0.047  -0.000  -0.000  -0.000   0.001  -0.046
  0.000  -0.004   0.000   0.000   0.001   0.000  -0.004   0.000
  0.000  -0.000  -0.008   0.000  -0.000   0.000  -0.000  -0.008
  0.000   0.000  -0.000  -0.004   0.000   0.000   0.000  -0.000
  0.000  -0.003   0.000   0.000   0.001   0.000  -0.002   0.000
  0.000  -0.001  -0.009   0.000  -0.000   0.000  -0.001  -0.008
  0.000   0.000  -0.000  -0.003   0.000   0.000   0.000  -0.000
 total augmentation occupancy for first ion, spin component:           1
  3.151   0.006   0.011  -0.206   0.005  -2.021  -0.004  -0.007   0.033  -0.003   0.002   0.000  -0.001  -0.001  -0.049   0.000
  0.006   3.911  -0.028   0.010  -0.199  -0.004  -2.093   0.019  -0.006   0.035  -0.011   0.002  -0.258   0.005  -0.000   0.012
  0.011  -0.028   4.151   0.020  -0.016  -0.008   0.019  -2.559  -0.014   0.011   0.758  -0.119   0.004  -0.310  -0.004   0.000
 -0.206   0.010   0.020   3.888  -0.009   0.040  -0.006  -0.014  -2.078   0.006   0.001   0.000  -0.001  -0.004  -0.256  -0.000
  0.005  -0.199  -0.016  -0.009   3.158  -0.003   0.028   0.011   0.005  -2.026  -0.000  -0.001  -0.052   0.002  -0.003   0.003
 -2.021  -0.004  -0.008   0.040  -0.003   2.534   0.003   0.005   0.084   0.002  -0.001  -0.000   0.000   0.001   0.049   0.000
 -0.004  -2.093   0.019  -0.006   0.028   0.003   2.103  -0.012   0.003   0.087   0.007  -0.000   0.246  -0.003   0.000  -0.017
 -0.007   0.019  -2.559  -0.014   0.011   0.005  -0.012   2.731   0.009  -0.008  -0.659   0.084  -0.003   0.367   0.003   0.000
  0.033  -0.006  -0.014  -2.078   0.005   0.084   0.003   0.009   2.093  -0.003  -0.001  -0.000   0.001   0.002   0.245   0.000
 -0.003   0.035   0.011   0.006  -2.026   0.002   0.087  -0.008  -0.003   2.537   0.001   0.000   0.050  -0.002   0.002  -0.003
  0.002  -0.011   0.758   0.001  -0.000  -0.001   0.007  -0.659  -0.001   0.001   2.234  -0.446   0.002   0.186  -0.001  -0.000
  0.000   0.002  -0.119   0.000  -0.001  -0.000  -0.000   0.084  -0.000   0.000  -0.446   0.110   0.000  -0.065  -0.000   0.000
 -0.001  -0.258   0.004  -0.001  -0.052   0.000   0.246  -0.003   0.001   0.050   0.002   0.000   0.260  -0.000   0.000  -0.014
 -0.001   0.005  -0.310  -0.004   0.002   0.001  -0.003   0.367   0.002  -0.002   0.186  -0.065  -0.000   0.147   0.000   0.000
 -0.049  -0.000  -0.004  -0.256  -0.003   0.049   0.000   0.003   0.245   0.002  -0.001  -0.000   0.000   0.000   0.260  -0.000
  0.000   0.012   0.000  -0.000   0.003   0.000  -0.017   0.000   0.000  -0.003  -0.000   0.000  -0.014   0.000  -0.000   0.001
 -0.000  -0.001   0.003   0.000   0.000   0.000  -0.000  -0.019  -0.000  -0.000  -0.018   0.005   0.000  -0.009  -0.000   0.000
  0.003  -0.000   0.000   0.012   0.000  -0.003   0.000  -0.000  -0.017   0.000   0.000  -0.000  -0.000  -0.000  -0.014   0.000


------------------------ aborting loop because EDIFF is reached ----------------------------------------


    CHARGE:  cpu time    2.8736: real time    2.8713
    FORLOC:  cpu time    0.0380: real time    0.0378
    FORNL :  cpu time   11.2063: real time   11.4044
    STRESS:  cpu time   34.0128: real time   34.1706
    FORCOR:  cpu time    0.0720: real time    0.0717
    FORHAR:  cpu time    0.0300: real time    0.0302
    MIXING:  cpu time    0.0090: real time    0.0086
    OFIELD:  cpu time    0.0000: real time    0.0000

  FORCE on cell =-STRESS in cart. coord.  units (eV):
  Direction    XX          YY          ZZ          XY          YZ          ZX
  --------------------------------------------------------------------------------------
  Alpha Z   961.48010   961.48010   961.48010
  Ewald  110550.93696110542.19786************     1.73840    28.65423    45.91807
  Hartree117133.88663117124.31939************     6.19779    20.56496    35.13896
  E(xc)   -1633.78156 -1633.74403 -1643.24014    -0.05728     0.00148    -0.01615
  Local  ************************238642.88879   -12.50097   -50.80118   -84.84665
  n-local   138.02716   139.66489   125.19157    -1.57649    -0.10152    -0.51347
  augment  1881.41167  1878.96189  1927.72258     2.37564     0.36546     1.06031
  Kinetic  5352.31618  5347.15417  5480.73148     5.07626     1.33964     3.07061
  Fock        0.00000     0.00000     0.00000     0.00000     0.00000     0.00000
  -------------------------------------------------------------------------------------
  Total     -35.65953   -37.11038    -0.48943     1.25336     0.02307    -0.18831
  in kB     -42.51961   -44.24958    -0.58358     1.49447     0.02751    -0.22454
  external pressure =      -29.12 kB  Pullay stress =        0.00 kB


 VOLUME and BASIS-vectors are now :
 -----------------------------------------------------------------------------
  energy-cutoff  :      400.00
  volume of cell :     1343.68
      direct lattice vectors                 reciprocal lattice vectors
     8.421641764  0.000000000  0.000000000     0.118741693 -0.068555548  0.000000000
     4.210820882  7.293355709  0.000000000     0.000000000  0.137111097  0.000000000
     0.000000000  0.000000000 21.876241706     0.000000000  0.000000000  0.045711691

  length of vectors
     8.421641764  8.421641764 21.876241706     0.137111097  0.137111097  0.045711691


 FORCES acting on ions
    electron-ion (+dipol)            ewald-force                    non-local-force                 convergence-correction
 -----------------------------------------------------------------------------------------------
   0.546E+00 0.498E+00 0.233E+04   -.599E+00 -.421E+00 -.233E+04   0.339E-01 -.424E-01 -.114E+01   0.174E-03 0.972E-04 0.240E-04
   -.346E+00 -.202E+00 0.233E+04   0.335E+00 0.197E+00 -.233E+04   0.186E-03 -.112E-02 -.122E+01   -.139E-03 0.303E-03 0.909E-05
   -.263E+00 0.351E-01 0.233E+04   0.260E+00 -.408E-01 -.233E+04   0.114E-01 0.688E-02 -.122E+01   -.349E-04 0.122E-03 -.742E-04
   -.399E+00 -.265E+00 0.233E+04   0.388E+00 0.255E+00 -.233E+04   -.618E-02 0.363E-03 -.121E+01   0.183E-03 -.706E-04 0.120E-03
   -.101E+00 -.237E+00 0.233E+04   0.927E-01 0.240E+00 -.233E+04   0.131E-01 0.548E-02 -.122E+01   -.240E-03 0.549E-04 0.148E-03
   0.476E+00 0.281E+00 0.233E+04   -.478E+00 -.279E+00 -.233E+04   0.745E-02 0.298E-02 -.118E+01   0.568E-04 -.982E-05 0.759E-05
   -.215E+00 -.124E+00 0.233E+04   0.249E+00 0.147E+00 -.232E+04   -.193E-01 -.127E-01 -.125E+01   0.904E-04 -.284E-03 0.870E-04
   0.705E+00 0.226E+00 0.233E+04   -.664E+00 -.306E+00 -.233E+04   -.200E-01 0.476E-01 -.114E+01   -.160E-03 -.462E-04 0.558E-04
   -.436E+00 -.207E+00 0.233E+04   0.419E+00 0.207E+00 -.233E+04   -.150E-02 -.740E-02 -.121E+01   0.700E-04 -.166E-03 -.780E-04
   -.217E+01 -.163E+01 0.836E+03   0.203E+01 0.158E+01 -.836E+03   0.146E+00 0.608E-01 -.387E+00   0.172E-03 0.225E-03 -.372E-03
   -.199E+01 -.115E+01 0.833E+03   0.201E+01 0.116E+01 -.832E+03   0.460E-02 -.430E-02 -.306E+00   -.272E-03 0.431E-03 -.284E-03
   0.311E+01 0.311E+01 0.831E+03   -.307E+01 -.321E+01 -.831E+03   -.653E-01 0.208E-01 -.225E+00   0.999E-04 0.114E-03 -.366E-03
   -.331E+01 -.269E+01 0.832E+03   0.337E+01 0.270E+01 -.831E+03   0.138E-01 0.166E-01 -.324E+00   0.112E-03 -.183E-03 -.289E-03
   0.412E+01 0.128E+01 0.831E+03   -.419E+01 -.119E+01 -.831E+03   -.448E-02 -.794E-01 -.226E+00   -.356E-03 -.137E-04 -.238E-03
   -.102E+01 -.540E+00 0.836E+03   0.996E+00 0.529E+00 -.836E+03   0.468E-01 0.187E-01 -.409E+00   0.243E-03 -.188E-03 -.414E-03
   0.715E+01 0.409E+01 0.828E+03   -.701E+01 -.401E+01 -.828E+03   -.176E+00 -.106E+00 -.220E+00   0.350E-04 -.227E-03 -.256E-03
   -.253E+01 -.972E+00 0.836E+03   0.241E+01 0.883E+00 -.836E+03   0.133E+00 0.827E-01 -.387E+00   -.223E-03 0.741E-04 -.293E-03
   -.410E+01 -.147E+01 0.832E+03   0.414E+01 0.152E+01 -.831E+03   0.294E-01 -.789E-02 -.323E+00   0.187E-03 -.232E-03 -.339E-03
   -.295E+01 0.223E+01 -.662E+03   0.292E+01 -.231E+01 0.662E+03   0.341E-01 0.838E-01 0.461E+00   0.218E-03 0.147E-04 -.768E-03
   -.127E+01 -.389E+01 -.681E+03   0.151E+01 0.410E+01 0.680E+03   -.242E+00 -.204E+00 0.331E+00   0.625E-04 0.217E-03 -.885E-03
   0.314E+01 0.162E+01 -.683E+03   -.322E+01 -.167E+01 0.683E+03   0.756E-01 0.535E-01 0.676E+00   -.280E-03 0.244E-03 -.704E-03
   -.323E+01 -.189E+01 -.676E+03   0.332E+01 0.195E+01 0.676E+03   -.917E-01 -.590E-01 0.470E+00   0.328E-03 -.241E-03 -.754E-03
   0.356E+01 -.387E+01 -.697E+03   -.362E+01 0.331E+01 0.697E+03   0.584E-01 0.555E+00 -.130E+00   -.740E-04 -.156E-03 -.794E-03
   0.393E+00 -.328E+01 -.663E+03   -.480E+00 0.330E+01 0.662E+03   0.908E-01 -.215E-01 0.460E+00   -.253E-03 -.382E-04 -.654E-03
   -.161E+01 0.508E+01 -.697E+03   0.111E+01 -.486E+01 0.698E+03   0.509E+00 -.221E+00 -.136E+00   0.165E-03 -.182E-03 -.650E-03
   0.472E+01 0.260E+01 -.654E+03   -.485E+01 -.267E+01 0.653E+03   0.127E+00 0.709E-01 0.719E+00   -.395E-04 -.245E-04 -.717E-03
   -.402E+01 0.960E+00 -.680E+03   0.432E+01 -.848E+00 0.680E+03   -.299E+00 -.112E+00 0.338E+00   -.129E-03 0.174E-03 -.636E-03
   -.219E+02 0.125E+02 -.218E+04   0.219E+02 -.125E+02 0.218E+04   -.307E-01 0.845E-01 0.102E+01   0.354E-04 -.106E-03 -.425E-03
   0.363E+02 0.206E+02 -.213E+04   -.375E+02 -.213E+02 0.213E+04   0.127E+01 0.737E+00 0.178E+01   -.592E-04 0.506E-04 -.549E-03
   -.487E+02 0.114E+03 -.211E+04   0.480E+02 -.113E+03 0.212E+04   0.682E+00 -.113E+01 -.327E+01   0.315E-04 0.373E-04 -.306E-03
   0.633E+01 -.721E+01 -.219E+04   -.630E+01 0.729E+01 0.219E+04   -.247E-01 -.880E-01 0.104E+01   0.141E-03 0.571E-04 -.496E-03
   0.748E+02 -.992E+02 -.211E+04   -.741E+02 0.980E+02 0.212E+04   -.707E+00 0.113E+01 -.325E+01   -.177E-04 0.171E-03 -.514E-03
   -.475E+02 -.280E+02 -.210E+04   0.485E+02 0.286E+02 0.210E+04   -.962E+00 -.537E+00 0.171E+01   -.120E-03 0.583E-04 -.395E-03
   0.348E+01 0.185E+01 -.219E+04   -.344E+01 -.185E+01 0.219E+04   -.476E-01 -.597E-02 0.105E+01   0.138E-03 -.134E-03 -.463E-03
   -.163E+00 -.252E+02 -.218E+04   0.120E+00 0.252E+02 0.218E+04   0.498E-01 -.555E-01 0.103E+01   -.145E-03 -.897E-04 -.512E-03
   -.282E+01 0.981E+01 -.219E+04   0.291E+01 -.983E+01 0.219E+04   -.908E-01 0.162E-01 0.103E+01   0.810E-05 -.611E-04 -.366E-03
   0.457E+02 0.257E+02 -.100E+04   -.457E+02 -.257E+02 0.100E+04   -.486E-01 -.131E-01 -.116E+01   0.553E-04 0.587E-04 0.956E-04
   -.438E+02 -.249E+02 -.957E+03   0.448E+02 0.254E+02 0.957E+03   -.100E+01 -.566E+00 -.356E+00   -.378E-05 0.115E-04 0.100E-03
   0.480E+02 0.272E+02 -.268E+03   -.525E+02 -.297E+02 0.270E+03   0.447E+01 0.253E+01 -.219E+01   0.165E-05 0.442E-05 0.268E-04
   0.224E+02 -.399E+02 -.238E+03   -.250E+02 0.435E+02 0.241E+03   0.263E+01 -.361E+01 -.310E+01   0.109E-04 -.151E-04 0.196E-04
   -.496E+02 -.267E+02 -.231E+03   0.542E+02 0.292E+02 0.229E+03   -.453E+01 -.243E+01 0.179E+01   -.242E-04 -.876E-05 0.275E-04
   -.209E+02 0.395E+02 -.238E+03   0.224E+02 -.436E+02 0.241E+03   -.156E+01 0.409E+01 -.322E+01   -.827E-05 0.194E-04 0.220E-04
 -----------------------------------------------------------------------------------------------
   -.439E+00 -.281E+00 0.165E+02   0.117E-12 0.924E-13 0.568E-12   0.509E+00 0.301E+00 -.165E+02   0.395E-04 0.628E-04 -.128E-01
 
 
 POSITION                                       TOTAL-FORCE (eV/Angst)
 -----------------------------------------------------------------------------------
      0.00000      0.00000      7.50000        -0.021050      0.034270     -0.085766
      2.80721      0.00000      7.50000        -0.012276     -0.005604     -0.060297
      5.61443      0.00000      7.50000         0.007398      0.000792     -0.047484
      1.40361      2.43112      7.50000        -0.018645     -0.010322     -0.055399
      4.21082      2.43112      7.50000         0.002538      0.008135     -0.047245
      7.01803      2.43112      7.50000         0.004036      0.004905     -0.074538
      2.80721      4.86224      7.50000         0.013151      0.009417     -0.032999
      5.61443      4.86224      7.50000         0.018700     -0.032853     -0.086311
      8.42164      4.86224      7.50000        -0.020409     -0.008657     -0.055672
      1.40361      0.81037      9.79208        -0.000209      0.006100     -0.068821
      4.21082      0.81037      9.79208         0.020191      0.009893      0.186491
      7.01803      0.81037      9.79208        -0.026770     -0.073786      0.122527
      2.80721      3.24149      9.79208         0.069876      0.029222      0.184905
      5.61443      3.24149      9.79208        -0.072772      0.008441      0.123284
      8.42164      3.24149      9.79208         0.016618      0.007442      0.010160
      4.21082      5.67261      9.79208        -0.039027     -0.024678     -0.079559
      7.01803      5.67261      9.79208         0.007627     -0.007552     -0.071059
      9.82525      5.67261      9.79208         0.065411      0.040978      0.186966
      8.43619      1.61790     12.04819         0.001047      0.000391     -0.006796
      2.82803      1.62939     12.07324         0.001112     -0.002272     -0.006551
      5.61644      1.61763     12.08980        -0.002349      0.003459     -0.004325
      9.83791      4.05584     12.06146         0.000623     -0.003196     -0.008161
      4.21182      4.02485     12.10289         0.001503      0.000465     -0.008036
      7.02601      4.06155     12.04851         0.001612     -0.001697     -0.008969
     11.20926      6.49140     12.10400        -0.000567      0.003630     -0.006294
      5.60351      6.47331     12.02869         0.000159      0.000089     -0.011075
      8.44229      6.49197     12.07284        -0.002383     -0.000388     -0.007648
      4.22556      7.29143     14.35602        -0.000681      0.000976     -0.000615
      6.97370      7.26017     14.30133         0.010193      0.006925      0.002944
      5.63165      0.03383     14.55201         0.002052      0.005539     -0.005441
      1.44079      2.44143     14.35846         0.001376     -0.007437      0.004517
      4.26126      2.41646     14.55165        -0.001276     -0.001584      0.003482
      7.10178      2.46833     14.32060        -0.007845     -0.003131      0.005275
      2.83118      4.86507     14.37973        -0.001762      0.000930     -0.001643
      5.62972      4.86137     14.35502         0.005016     -0.002652      0.013884
      8.45607      4.87755     14.35944        -0.002386     -0.001496      0.002086
      4.85181      1.16940     16.08787        -0.006299      0.000708     -0.001863
      5.76281      1.68500     17.16773         0.000137     -0.010819     -0.002439
      3.96902      0.66883     16.52312         0.003471      0.001122     -0.005974
      5.21945      2.41240     17.79565        -0.013444      0.005047      0.006238
      6.67502      2.17452     16.78618         0.001322      0.012374     -0.000800
      6.07052      0.84897     17.82049        -0.005019     -0.003123     -0.000979
 -----------------------------------------------------------------------------------
    total drift:                                0.069995      0.020591     -0.078449


--------------------------------------------------------------------------------------------------------



  FREE ENERGIE OF THE ION-ELECTRON SYSTEM (eV)
  ---------------------------------------------------
  free  energy   TOTEN  =      -242.18256008 eV

  energy  without entropy=     -240.07400114  energy(sigma->0) =     -241.12828061
 


--------------------------------------------------------------------------------------------------------


    POTLOK:  cpu time    0.0690: real time    0.0693


--------------------------------------------------------------------------------------------------------


 stress matrix after NEB project (eV)
    -35.65953      1.25336     -0.18831
      1.25336    -37.11038      0.02307
     -0.18831      0.02307     -0.48943
  FORCES: max atom, RMS     0.015657    0.006760
  FORCE total and by dimension    0.043809    0.013884
  Stress total and by dimension   51.499862   37.110384
     LOOP+:  cpu time 1826.7883: real time 1840.3459
    4ORBIT:  cpu time    0.0000: real time    0.0000

 total amount of memory used by VASP on root node   292284. kBytes
========================================================================

   base      :      30000. kBytes
   nonlr-proj:       4823. kBytes
   fftplans  :       4497. kBytes
   grid      :       7849. kBytes
   one-center:        171. kBytes
   wavefun   :     244944. kBytes
 
  
  
 General timing and accounting informations for this job:
 ========================================================
  
                  Total CPU time used (sec):     1857.168
                            User time (sec):     1803.142
                          System time (sec):       54.026
                         Elapsed time (sec):     1871.044
  
                   Maximum memory used (kb):      331476.
                   Average memory used (kb):           0.
  
                          Minor page faults:     24876836
                          Major page faults:           13
                 Voluntary context switches:         3462
