<?xml version="1.0" encoding="ISO-8859-1"?>
<modeling>
 <generator>
  <i name="program" type="string">vasp </i>
  <i name="version" type="string">5.4.1  </i>
  <i name="subversion" type="string">24Jun15 (build Oct 10 2016 12:42:00) complex                          parallel </i>
  <i name="platform" type="string">IFC91_ompi </i>
  <i name="date" type="string">2018 06 09 </i>
  <i name="time" type="string">18:27:26 </i>
 </generator>
 <incar>
  <i type="string" name="PREC">normal</i>
  <i type="string" name="ALGO"> fast</i>
  <i type="int" name="ISPIN">     1</i>
  <i type="int" name="NELMDL">    -4</i>
  <i type="int" name="NELMIN">     4</i>
  <i name="EDIFF">      0.00000100</i>
  <i name="ENCUT">    400.00000000</i>
  <i type="string" name="LREAL"> auto</i>
  <i type="int" name="ISMEAR">    -1</i>
  <i name="SIGMA">      0.10000000</i>
  <i type="logical" name="LWAVE"> F  </i>
  <i type="logical" name="LCHARG"> F  </i>
  <v type="int" name="KPOINT_BSE">    -1     0     0     0</v>
  <i type="string" name="GGA"> PE</i>
 </incar>
 <kpoints>
  <generation param="Monkhorst-Pack">
   <v type="int" name="divisions">       6        6        1 </v>
   <v name="usershift">      0.00000000       0.00000000       0.00000000 </v>
   <v name="genvec1">      0.16666667      -0.00000000       0.00000000 </v>
   <v name="genvec2">      0.00000000       0.16666667       0.00000000 </v>
   <v name="genvec3">      0.00000000       0.00000000       1.00000000 </v>
   <v name="shift">      0.50000000       0.50000000       0.00000000 </v>
  </generation>
  <varray name="kpointlist" >
   <v>       0.08333333       0.08333333       0.00000000 </v>
   <v>       0.00000000       0.08333333       0.00000000 </v>
   <v>      -0.08333333       0.00000000       0.00000000 </v>
   <v>       0.25000000       0.08333333       0.00000000 </v>
   <v>       0.16666667       0.25000000       0.00000000 </v>
   <v>      -0.08333333       0.16666667       0.00000000 </v>
   <v>       0.16666667      -0.08333333       0.00000000 </v>
   <v>      -0.08333333      -0.25000000       0.00000000 </v>
   <v>      -0.25000000      -0.16666667       0.00000000 </v>
   <v>       0.41666667       0.08333333       0.00000000 </v>
   <v>       0.33333333       0.41666667       0.00000000 </v>
   <v>      -0.08333333       0.33333333       0.00000000 </v>
   <v>       0.33333333      -0.08333333       0.00000000 </v>
   <v>      -0.08333333      -0.41666667       0.00000000 </v>
   <v>      -0.41666667      -0.33333333       0.00000000 </v>
   <v>      -0.41666667       0.08333333       0.00000000 </v>
   <v>       0.50000000      -0.41666667       0.00000000 </v>
   <v>      -0.08333333       0.50000000       0.00000000 </v>
   <v>       0.50000000      -0.08333333       0.00000000 </v>
   <v>      -0.08333333       0.41666667       0.00000000 </v>
   <v>       0.41666667       0.50000000       0.00000000 </v>
   <v>      -0.25000000       0.08333333       0.00000000 </v>
   <v>      -0.33333333      -0.25000000       0.00000000 </v>
   <v>      -0.08333333      -0.33333333       0.00000000 </v>
   <v>      -0.33333333      -0.08333333       0.00000000 </v>
   <v>      -0.08333333       0.25000000       0.00000000 </v>
   <v>       0.25000000       0.33333333       0.00000000 </v>
   <v>      -0.08333333       0.08333333       0.00000000 </v>
   <v>      -0.16666667      -0.08333333       0.00000000 </v>
   <v>      -0.08333333      -0.16666667       0.00000000 </v>
   <v>       0.25000000       0.25000000       0.00000000 </v>
   <v>       0.00000000       0.25000000       0.00000000 </v>
   <v>      -0.25000000       0.00000000       0.00000000 </v>
   <v>       0.41666667       0.25000000       0.00000000 </v>
   <v>       0.16666667       0.41666667       0.00000000 </v>
   <v>      -0.25000000       0.16666667       0.00000000 </v>
   <v>       0.16666667      -0.25000000       0.00000000 </v>
   <v>      -0.25000000      -0.41666667       0.00000000 </v>
   <v>      -0.41666667      -0.16666667       0.00000000 </v>
   <v>      -0.41666667       0.25000000       0.00000000 </v>
   <v>       0.33333333      -0.41666667       0.00000000 </v>
   <v>      -0.25000000       0.33333333       0.00000000 </v>
   <v>       0.33333333      -0.25000000       0.00000000 </v>
   <v>      -0.25000000       0.41666667       0.00000000 </v>
   <v>       0.41666667      -0.33333333       0.00000000 </v>
   <v>      -0.25000000       0.25000000       0.00000000 </v>
   <v>       0.50000000      -0.25000000       0.00000000 </v>
   <v>      -0.25000000       0.50000000       0.00000000 </v>
   <v>       0.41666667       0.41666667       0.00000000 </v>
   <v>       0.00000000       0.41666667       0.00000000 </v>
   <v>      -0.41666667      -0.00000000       0.00000000 </v>
   <v>      -0.41666667       0.41666667       0.00000000 </v>
   <v>       0.16666667      -0.41666667       0.00000000 </v>
   <v>      -0.41666667       0.16666667       0.00000000 </v>
  </varray>
  <varray name="weights" >
   <v>       0.01851852 </v>
   <v>       0.01851852 </v>
   <v>       0.01851852 </v>
   <v>       0.01851852 </v>
   <v>       0.01851852 </v>
   <v>       0.01851852 </v>
   <v>       0.01851852 </v>
   <v>       0.01851852 </v>
   <v>       0.01851852 </v>
   <v>       0.01851852 </v>
   <v>       0.01851852 </v>
   <v>       0.01851852 </v>
   <v>       0.01851852 </v>
   <v>       0.01851852 </v>
   <v>       0.01851852 </v>
   <v>       0.01851852 </v>
   <v>       0.01851852 </v>
   <v>       0.01851852 </v>
   <v>       0.01851852 </v>
   <v>       0.01851852 </v>
   <v>       0.01851852 </v>
   <v>       0.01851852 </v>
   <v>       0.01851852 </v>
   <v>       0.01851852 </v>
   <v>       0.01851852 </v>
   <v>       0.01851852 </v>
   <v>       0.01851852 </v>
   <v>       0.01851852 </v>
   <v>       0.01851852 </v>
   <v>       0.01851852 </v>
   <v>       0.01851852 </v>
   <v>       0.01851852 </v>
   <v>       0.01851852 </v>
   <v>       0.01851852 </v>
   <v>       0.01851852 </v>
   <v>       0.01851852 </v>
   <v>       0.01851852 </v>
   <v>       0.01851852 </v>
   <v>       0.01851852 </v>
   <v>       0.01851852 </v>
   <v>       0.01851852 </v>
   <v>       0.01851852 </v>
   <v>       0.01851852 </v>
   <v>       0.01851852 </v>
   <v>       0.01851852 </v>
   <v>       0.01851852 </v>
   <v>       0.01851852 </v>
   <v>       0.01851852 </v>
   <v>       0.01851852 </v>
   <v>       0.01851852 </v>
   <v>       0.01851852 </v>
   <v>       0.01851852 </v>
   <v>       0.01851852 </v>
   <v>       0.01851852 </v>
  </varray>
 </kpoints>
 <parameters>
  <separator name="general" >
   <i type="string" name="SYSTEM">unknown system</i>
   <i type="logical" name="LCOMPAT"> F  </i>
  </separator>
  <separator name="electronic" >
   <i type="string" name="PREC">normal</i>
   <i name="ENMAX">    400.00000000</i>
   <i name="ENAUG">    644.87300000</i>
   <i name="EDIFF">      0.00000100</i>
   <i type="int" name="IALGO">    68</i>
   <i type="int" name="IWAVPR">    10</i>
   <i type="int" name="NBANDS">   225</i>
   <i name="NELECT">    372.00000000</i>
   <i type="int" name="TURBO">     0</i>
   <i type="int" name="IRESTART">     0</i>
   <i type="int" name="NREBOOT">     0</i>
   <i type="int" name="NMIN">     0</i>
   <i name="EREF">      0.00000000</i>
   <separator name="electronic smearing" >
    <i type="int" name="ISMEAR">    -1</i>
    <i name="SIGMA">      0.10000000</i>
    <i name="KSPACING">      0.50000000</i>
    <i type="logical" name="KGAMMA"> T  </i>
   </separator>
   <separator name="electronic projectors" >
    <i type="logical" name="LREAL"> T  </i>
    <v name="ROPT">     -0.00050000     -0.00050000     -0.00050000</v>
    <i type="int" name="LMAXPAW">  -100</i>
    <i type="int" name="LMAXMIX">     2</i>
    <i type="logical" name="NLSPLINE"> F  </i>
   </separator>
   <separator name="electronic startup" >
    <i type="int" name="ISTART">     0</i>
    <i type="int" name="ICHARG">     2</i>
    <i type="int" name="INIWAV">     1</i>
   </separator>
   <separator name="electronic spin" >
    <i type="int" name="ISPIN">     1</i>
    <i type="logical" name="LNONCOLLINEAR"> F  </i>
    <v name="MAGMOM">      1.00000000      1.00000000      1.00000000      1.00000000      1.00000000      1.00000000      1.00000000      1.00000000      1.00000000      1.00000000      1.00000000      1.00000000      1.00000000      1.00000000      1.00000000      1.00000000      1.00000000      1.00000000      1.00000000      1.00000000
      1.00000000      1.00000000      1.00000000      1.00000000      1.00000000      1.00000000      1.00000000      1.00000000      1.00000000      1.00000000      1.00000000      1.00000000      1.00000000      1.00000000      1.00000000      1.00000000      1.00000000      1.00000000      1.00000000      1.00000000
      1.00000000      1.00000000</v>
    <i name="NUPDOWN">     -1.00000000</i>
    <i type="logical" name="LSORBIT"> F  </i>
    <v name="SAXIS">      0.00000000      0.00000000      1.00000000</v>
    <i type="logical" name="LSPIRAL"> F  </i>
    <v name="QSPIRAL">      0.00000000      0.00000000      0.00000000</v>
    <i type="logical" name="LZEROZ"> F  </i>
   </separator>
   <separator name="electronic exchange-correlation" >
    <i type="logical" name="LASPH"> F  </i>
    <i type="logical" name="LMETAGGA"> F  </i>
   </separator>
   <separator name="electronic convergence" >
    <i type="int" name="NELM">    60</i>
    <i type="int" name="NELMDL">    -4</i>
    <i type="int" name="NELMIN">     4</i>
    <i name="ENINI">    400.00000000</i>
    <separator name="electronic convergence detail" >
     <i type="logical" name="LDIAG"> T  </i>
     <i type="logical" name="LSUBROT"> F  </i>
     <i name="WEIMIN">      0.00000000</i>
     <i name="EBREAK">      0.00000000</i>
     <i name="DEPER">      0.30000000</i>
     <i type="int" name="NRMM">     4</i>
     <i name="TIME">      0.40000000</i>
    </separator>
   </separator>
   <separator name="electronic mixer" >
    <i name="AMIX">      0.40000000</i>
    <i name="BMIX">      1.00000000</i>
    <i name="AMIN">      0.10000000</i>
    <i name="AMIX_MAG">      1.60000000</i>
    <i name="BMIX_MAG">      1.00000000</i>
    <separator name="electronic mixer details" >
     <i type="int" name="IMIX">     4</i>
     <i type="logical" name="MIXFIRST"> F  </i>
     <i type="int" name="MAXMIX">   -45</i>
     <i name="WC">    100.00000000</i>
     <i type="int" name="INIMIX">     1</i>
     <i type="int" name="MIXPRE">     1</i>
     <i type="int" name="MREMOVE">     5</i>
    </separator>
   </separator>
   <separator name="electronic dipolcorrection" >
    <i type="logical" name="LDIPOL"> F  </i>
    <i type="logical" name="LMONO"> F  </i>
    <i type="int" name="IDIPOL">     0</i>
    <i name="EPSILON">      1.00000000</i>
    <v name="DIPOL">   -100.00000000   -100.00000000   -100.00000000</v>
    <i name="EFIELD">      0.00000000</i>
   </separator>
  </separator>
  <separator name="grids" >
   <i type="int" name="NGX">    42</i>
   <i type="int" name="NGY">    42</i>
   <i type="int" name="NGZ">   108</i>
   <i type="int" name="NGXF">    84</i>
   <i type="int" name="NGYF">    84</i>
   <i type="int" name="NGZF">   216</i>
   <i type="logical" name="ADDGRID"> F  </i>
  </separator>
  <separator name="ionic" >
   <i type="int" name="NSW">     0</i>
   <i type="int" name="IBRION">    -1</i>
   <i type="int" name="ISIF">     2</i>
   <i name="PSTRESS">      0.00000000</i>
   <i name="EDIFFG">      0.00001000</i>
   <i type="int" name="NFREE">     0</i>
   <i name="POTIM">      0.50000000</i>
   <i name="SMASS">     -3.00000000</i>
   <i name="SCALEE">      1.00000000</i>
  </separator>
  <separator name="ionic md" >
   <i name="TEBEG">      0.00010000</i>
   <i name="TEEND">      0.00010000</i>
   <i type="int" name="NBLOCK">     1</i>
   <i type="int" name="KBLOCK">     1</i>
   <i type="int" name="NPACO">   256</i>
   <i name="APACO">     16.00000000</i>
  </separator>
  <separator name="symmetry" >
   <i type="int" name="ISYM">     2</i>
   <i name="SYMPREC">      0.00001000</i>
  </separator>
  <separator name="dos" >
   <i type="logical" name="LORBIT"> F  </i>
   <v name="RWIGS">     -1.00000000     -1.00000000     -1.00000000</v>
   <i type="int" name="NEDOS">   301</i>
   <i name="EMIN">     10.00000000</i>
   <i name="EMAX">    -10.00000000</i>
   <i name="EFERMI">      0.00000000</i>
  </separator>
  <separator name="writing" >
   <i type="int" name="NWRITE">     2</i>
   <i type="logical" name="LWAVE"> F  </i>
   <i type="logical" name="LCHARG"> F  </i>
   <i type="logical" name="LPARD"> F  </i>
   <i type="logical" name="LVTOT"> F  </i>
   <i type="logical" name="LVHAR"> F  </i>
   <i type="logical" name="LELF"> F  </i>
   <i type="logical" name="LOPTICS"> F  </i>
   <v name="STM">      0.00000000      0.00000000      0.00000000      0.00000000      0.00000000      0.00000000      0.00000000</v>
  </separator>
  <separator name="performance" >
   <i type="int" name="NPAR">     5</i>
   <i type="int" name="NSIM">     4</i>
   <i type="int" name="NBLK">    -1</i>
   <i type="logical" name="LPLANE"> T  </i>
   <i type="logical" name="LSCALAPACK"> T  </i>
   <i type="logical" name="LSCAAWARE"> F  </i>
   <i type="logical" name="LSCALU"> F  </i>
   <i type="logical" name="LASYNC"> F  </i>
   <i type="logical" name="LORBITALREAL"> F  </i>
  </separator>
  <separator name="miscellaneous" >
   <i type="int" name="IDIOT">     3</i>
   <i type="logical" name="LMUSIC"> F  </i>
   <v name="POMASS">    195.08000000     12.01100000      1.00000000</v>
   <v name="DARWINR">      0.00000000      0.00000000      0.00000000</v>
   <v name="DARWINV">      1.00000000      1.00000000      1.00000000</v>
   <i type="logical" name="LCORR"> T  </i>
  </separator>
  <i type="logical" name="GGA_COMPAT"> T  </i>
  <i type="logical" name="LBERRY"> F  </i>
  <i type="int" name="ICORELEVEL">     0</i>
  <i type="logical" name="LDAU"> F  </i>
  <i type="int" name="I_CONSTRAINED_M">     0</i>
  <separator name="electronic exchange-correlation" >
   <i type="string" name="GGA">PE</i>
   <i type="int" name="VOSKOWN">     0</i>
   <i type="logical" name="LHFCALC"> F  </i>
   <i type="string" name="PRECFOCK"></i>
   <i type="logical" name="LSYMGRAD"> F  </i>
   <i type="logical" name="LHFONE"> F  </i>
   <i type="logical" name="LRHFCALC"> F  </i>
   <i type="logical" name="LTHOMAS"> F  </i>
   <i type="logical" name="LMODELHF"> F  </i>
   <i name="ENCUT4O">     -1.00000000</i>
   <i type="int" name="EXXOEP">     0</i>
   <i type="int" name="FOURORBIT">     0</i>
   <i name="AEXX">      0.00000000</i>
   <i name="HFALPHA">      0.00000000</i>
   <i name="MCALPHA">      0.00000000</i>
   <i name="ALDAX">      1.00000000</i>
   <i name="AGGAX">      1.00000000</i>
   <i name="ALDAC">      1.00000000</i>
   <i name="AGGAC">      1.00000000</i>
   <i type="int" name="NKREDX">     1</i>
   <i type="int" name="NKREDY">     1</i>
   <i type="int" name="NKREDZ">     1</i>
   <i type="logical" name="SHIFTRED"> F  </i>
   <i type="logical" name="ODDONLY"> F  </i>
   <i type="logical" name="EVENONLY"> F  </i>
   <i type="int" name="LMAXFOCK">     0</i>
   <i type="int" name="NMAXFOCKAE">     0</i>
   <i type="logical" name="LFOCKAEDFT"> F  </i>
   <i name="HFSCREEN">      0.00000000</i>
   <i name="HFSCREENC">      0.00000000</i>
   <i type="int" name="NBANDSGWLOW">     0</i>
  </separator>
  <separator name="vdW DFT" >
   <i type="logical" name="LUSE_VDW"> F  </i>
   <i name="Zab_VDW">     -0.84910000</i>
   <i name="PARAM1">      0.12340000</i>
   <i name="PARAM2">      1.00000000</i>
   <i name="PARAM3">      0.00000000</i>
  </separator>
  <separator name="model GW" >
   <i type="int" name="MODEL_GW">     0</i>
   <i name="MODEL_EPS0">     19.19547362</i>
   <i name="MODEL_ALPHA">      1.00000000</i>
  </separator>
  <separator name="linear response parameters" >
   <i type="logical" name="LEPSILON"> F  </i>
   <i type="logical" name="LRPA"> F  </i>
   <i type="logical" name="LNABLA"> F  </i>
   <i type="logical" name="LVEL"> F  </i>
   <i type="int" name="KINTER">     0</i>
   <i name="CSHIFT">      0.10000000</i>
   <i name="OMEGAMAX">     -1.00000000</i>
   <i name="DEG_THRESHOLD">      0.00200000</i>
  </separator>
  <separator name="orbital magnetization" >
   <i type="logical" name="NUCIND"> F  </i>
   <v name="MAGPOS">      0.00000000      0.00000000      0.00000000</v>
   <i type="logical" name="LNICSALL"> T  </i>
   <i type="logical" name="ORBITALMAG"> F  </i>
   <i type="logical" name="LMAGBLOCH"> F  </i>
   <i type="logical" name="LCHIMAG"> F  </i>
   <i type="logical" name="LGAUGE"> T  </i>
   <i type="int" name="MAGATOM">     0</i>
   <v name="MAGDIPOL">      0.00000000      0.00000000      0.00000000</v>
   <v name="AVECCONST">      0.00000000      0.00000000      0.00000000</v>
  </separator>
  <separator name="response functions" >
   <i type="logical" name="LADDER"> F  </i>
   <i type="logical" name="LFXC"> F  </i>
   <i type="logical" name="LHARTREE"> T  </i>
   <i type="int" name="IBSE">     0</i>
   <v type="int" name="KPOINT">    -1     0     0     0</v>
   <i type="logical" name="LTCTE"> F  </i>
   <i type="logical" name="LTETE"> F  </i>
   <i type="logical" name="LTRIPLET"> F  </i>
   <i type="logical" name="LFXCEPS"> F  </i>
   <i type="logical" name="LFXHEG"> F  </i>
   <i type="int" name="NATURALO">     0</i>
   <i type="logical" name="L2ORDER"> F  </i>
   <i type="logical" name="LUSEW"> F  </i>
   <i name="ENCUTGW">     -2.00000000</i>
   <i name="ENCUTGWSOFT">     -2.00000000</i>
   <i name="ENCUTLF">     -1.00000000</i>
   <i type="int" name="LMAXMP2">    -1</i>
   <i name="SCISSOR">      0.00000000</i>
   <i type="int" name="NOMEGA">     0</i>
   <i type="int" name="NOMEGAR">     0</i>
   <i type="int" name="NBANDSGW">    -1</i>
   <i type="int" name="NBANDSO">    -1</i>
   <i type="int" name="NBANDSV">    -1</i>
   <i type="int" name="NELM">     1</i>
   <i type="int" name="NELMHF">     1</i>
   <i type="int" name="DIM">     3</i>
   <i type="int" name="ANTIRES">     0</i>
   <i name="OMEGAMAX">    -30.00000000</i>
   <i name="OMEGAMIN">    -30.00000000</i>
   <i name="OMEGATL">   -200.00000000</i>
   <i type="int" name="OMEGAGRID">     0</i>
   <i name="CSHIFT">     -0.10000000</i>
   <i type="logical" name="SELFENERGY"> F  </i>
   <i type="logical" name="LSPECTRAL"> F  </i>
   <i type="logical" name="LSPECTRALGW"> F  </i>
   <i type="logical" name="LSINGLES"> F  </i>
   <i type="logical" name="LFERMIGW"> F  </i>
   <i type="logical" name="ODDONLYGW"> F  </i>
   <i type="logical" name="EVENONLYGW"> F  </i>
   <i type="int" name="NKREDLFX">     1</i>
   <i type="int" name="NKREDLFY">     1</i>
   <i type="int" name="NKREDLFZ">     1</i>
   <i type="int" name="MAXMEM">  1800</i>
   <i type="int" name="TELESCOPE">     0</i>
   <i type="int" name="TAUPAR">     1</i>
   <i type="int" name="OMEGAPAR">    -1</i>
   <i name="LAMBDA">      1.00000000</i>
  </separator>
  <separator name="External order field" >
   <i name="OFIELD_KAPPA">      0.00000000</i>
   <v name="OFIELD_K">      0.00000000      0.00000000      0.00000000</v>
   <i name="OFIELD_Q6_NEAR">      0.00000000</i>
   <i name="OFIELD_Q6_FAR">      0.00000000</i>
   <i name="OFIELD_A">      0.00000000</i>
  </separator>
 </parameters>
 <atominfo>
  <atoms>      42 </atoms>
  <types>       3 </types>
  <array name="atoms" >
   <dimension dim="1">ion</dimension>
   <field type="string">element</field>
   <field type="int">atomtype</field>
   <set>
    <rc><c>Pt</c><c>   1</c></rc>
    <rc><c>Pt</c><c>   1</c></rc>
    <rc><c>Pt</c><c>   1</c></rc>
    <rc><c>Pt</c><c>   1</c></rc>
    <rc><c>Pt</c><c>   1</c></rc>
    <rc><c>Pt</c><c>   1</c></rc>
    <rc><c>Pt</c><c>   1</c></rc>
    <rc><c>Pt</c><c>   1</c></rc>
    <rc><c>Pt</c><c>   1</c></rc>
    <rc><c>Pt</c><c>   1</c></rc>
    <rc><c>Pt</c><c>   1</c></rc>
    <rc><c>Pt</c><c>   1</c></rc>
    <rc><c>Pt</c><c>   1</c></rc>
    <rc><c>Pt</c><c>   1</c></rc>
    <rc><c>Pt</c><c>   1</c></rc>
    <rc><c>Pt</c><c>   1</c></rc>
    <rc><c>Pt</c><c>   1</c></rc>
    <rc><c>Pt</c><c>   1</c></rc>
    <rc><c>Pt</c><c>   1</c></rc>
    <rc><c>Pt</c><c>   1</c></rc>
    <rc><c>Pt</c><c>   1</c></rc>
    <rc><c>Pt</c><c>   1</c></rc>
    <rc><c>Pt</c><c>   1</c></rc>
    <rc><c>Pt</c><c>   1</c></rc>
    <rc><c>Pt</c><c>   1</c></rc>
    <rc><c>Pt</c><c>   1</c></rc>
    <rc><c>Pt</c><c>   1</c></rc>
    <rc><c>Pt</c><c>   1</c></rc>
    <rc><c>Pt</c><c>   1</c></rc>
    <rc><c>Pt</c><c>   1</c></rc>
    <rc><c>Pt</c><c>   1</c></rc>
    <rc><c>Pt</c><c>   1</c></rc>
    <rc><c>Pt</c><c>   1</c></rc>
    <rc><c>Pt</c><c>   1</c></rc>
    <rc><c>Pt</c><c>   1</c></rc>
    <rc><c>Pt</c><c>   1</c></rc>
    <rc><c>C </c><c>   2</c></rc>
    <rc><c>C </c><c>   2</c></rc>
    <rc><c>H </c><c>   3</c></rc>
    <rc><c>H </c><c>   3</c></rc>
    <rc><c>H </c><c>   3</c></rc>
    <rc><c>H </c><c>   3</c></rc>
   </set>
  </array>
  <array name="atomtypes" >
   <dimension dim="1">type</dimension>
   <field type="int">atomspertype</field>
   <field type="string">element</field>
   <field>mass</field>
   <field>valence</field>
   <field type="string">pseudopotential</field>
   <set>
    <rc><c>  36</c><c>Pt</c><c>    195.08000000</c><c>     10.00000000</c><c>  PAW_PBE Pt 04Feb2005                  </c></rc>
    <rc><c>   2</c><c>C </c><c>     12.01100000</c><c>      4.00000000</c><c>  PAW_PBE C 08Apr2002                   </c></rc>
    <rc><c>   4</c><c>H </c><c>      1.00000000</c><c>      1.00000000</c><c>  PAW_PBE H 15Jun2001                   </c></rc>
   </set>
  </array>
 </atominfo>
 <structure name="initialpos" >
  <crystal>
   <varray name="basis" >
    <v>       8.42164176       0.00000000       0.00000000 </v>
    <v>       4.21082088       7.29335571       0.00000000 </v>
    <v>       0.00000000       0.00000000      21.87624171 </v>
   </varray>
   <i name="volume">   1343.68315334 </i>
   <varray name="rec_basis" >
    <v>       0.11874169      -0.06855555       0.00000000 </v>
    <v>       0.00000000       0.13711110       0.00000000 </v>
    <v>       0.00000000       0.00000000       0.04571169 </v>
   </varray>
  </crystal>
  <varray name="positions" >
   <v>       0.00000000       0.00000000       0.34283768 </v>
   <v>       0.33333333       0.00000000       0.34283768 </v>
   <v>       0.66666667       0.00000000       0.34283768 </v>
   <v>       0.00000000       0.33333333       0.34283768 </v>
   <v>       0.33333333       0.33333333       0.34283768 </v>
   <v>       0.66666667       0.33333333       0.34283768 </v>
   <v>       0.00000000       0.66666667       0.34283768 </v>
   <v>       0.33333333       0.66666667       0.34283768 </v>
   <v>       0.66666667       0.66666667       0.34283768 </v>
   <v>       0.11111111       0.11111111       0.44761256 </v>
   <v>       0.44444444       0.11111111       0.44761256 </v>
   <v>       0.77777778       0.11111111       0.44761256 </v>
   <v>       0.11111111       0.44444444       0.44761256 </v>
   <v>       0.44444444       0.44444444       0.44761256 </v>
   <v>       0.77777778       0.44444444       0.44761256 </v>
   <v>       0.11111111       0.77777778       0.44761256 </v>
   <v>       0.44444444       0.77777778       0.44761256 </v>
   <v>       0.77777778       0.77777778       0.44761256 </v>
   <v>       0.89081184       0.22183169       0.55074309 </v>
   <v>       0.22410134       0.22340812       0.55188838 </v>
   <v>       0.55600762       0.22179499       0.55264501 </v>
   <v>       0.89011955       0.55610029       0.55134985 </v>
   <v>       0.22419268       0.55185140       0.55324374 </v>
   <v>       0.55583878       0.55688323       0.55075797 </v>
   <v>       0.88598494       0.89004293       0.55329412 </v>
   <v>       0.22158868       0.88756281       0.54985190 </v>
   <v>       0.55739148       0.89012140       0.55187006 </v>
   <v>       0.00188142       0.99973661       0.65623790 </v>
   <v>       0.33034401       0.99545032       0.65373816 </v>
   <v>       0.66639200       0.00463833       0.66519689 </v>
   <v>       0.00370872       0.33474723       0.65634965 </v>
   <v>       0.34032806       0.33132308       0.66518066 </v>
   <v>       0.67406012       0.33843552       0.65461862 </v>
   <v>       0.00265217       0.66705452       0.65732156 </v>
   <v>       0.33520924       0.66654733       0.65619223 </v>
   <v>       0.66970527       0.66876595       0.65639440 </v>
   <v>       0.49594417       0.16033706       0.73540382 </v>
   <v>       0.56876907       0.23103239       0.78476605 </v>
   <v>       0.42543641       0.09170351       0.75529954 </v>
   <v>       0.45438242       0.33076682       0.81346941 </v>
   <v>       0.64352780       0.29815134       0.76732478 </v>
   <v>       0.66262242       0.11640263       0.81460462 </v>
  </varray>
  <varray name="selective"  type="logical" >
   <v type="logical" >  F  F  F </v>
   <v type="logical" >  F  F  F </v>
   <v type="logical" >  F  F  F </v>
   <v type="logical" >  F  F  F </v>
   <v type="logical" >  F  F  F </v>
   <v type="logical" >  F  F  F </v>
   <v type="logical" >  F  F  F </v>
   <v type="logical" >  F  F  F </v>
   <v type="logical" >  F  F  F </v>
   <v type="logical" >  F  F  F </v>
   <v type="logical" >  F  F  F </v>
   <v type="logical" >  F  F  F </v>
   <v type="logical" >  F  F  F </v>
   <v type="logical" >  F  F  F </v>
   <v type="logical" >  F  F  F </v>
   <v type="logical" >  F  F  F </v>
   <v type="logical" >  F  F  F </v>
   <v type="logical" >  F  F  F </v>
   <v type="logical" >  T  T  T </v>
   <v type="logical" >  T  T  T </v>
   <v type="logical" >  T  T  T </v>
   <v type="logical" >  T  T  T </v>
   <v type="logical" >  T  T  T </v>
   <v type="logical" >  T  T  T </v>
   <v type="logical" >  T  T  T </v>
   <v type="logical" >  T  T  T </v>
   <v type="logical" >  T  T  T </v>
   <v type="logical" >  T  T  T </v>
   <v type="logical" >  T  T  T </v>
   <v type="logical" >  T  T  T </v>
   <v type="logical" >  T  T  T </v>
   <v type="logical" >  T  T  T </v>
   <v type="logical" >  T  T  T </v>
   <v type="logical" >  T  T  T </v>
   <v type="logical" >  T  T  T </v>
   <v type="logical" >  T  T  T </v>
   <v type="logical" >  T  T  T </v>
   <v type="logical" >  T  T  T </v>
   <v type="logical" >  T  T  T </v>
   <v type="logical" >  T  T  T </v>
   <v type="logical" >  T  T  T </v>
   <v type="logical" >  T  T  T </v>
  </varray>
  <nose>
   <v>      -3.00000000       0.00000000       0.00010000       0.00010000 </v>
  </nose>
 </structure>
 <calculation>
  <scstep>
   <time name="dav">   70.28   70.86</time>
   <time name="total">   70.48   71.06</time>
   <energy>
    <i name="alphaZ">    961.48010405 </i>
    <i name="ewald">  90826.92431663 </i>
    <i name="hartreedc">-119292.07861011 </i>
    <i name="XCdc">    156.87455689 </i>
    <i name="pawpsdc">  25286.02747792 </i>
    <i name="pawaedc"> -24269.00514459 </i>
    <i name="eentropy">     -0.55556906 </i>
    <i name="bandstr">   1935.75704867 </i>
    <i name="atom">  26592.19924351 </i>
    <i name="e_fr_energy">   2197.62342389 </i>
    <i name="e_wo_entrp">   2198.17899296 </i>
    <i name="e_0_energy">   2197.90120843 </i>
   </energy>
  </scstep>
  <scstep>
   <time name="dav">   85.01   85.14</time>
   <time name="total">   85.02   85.21</time>
   <energy>
    <i name="e_fr_energy">    -93.38255829 </i>
    <i name="e_wo_entrp">    -92.27690072 </i>
    <i name="e_0_energy">    -92.82972950 </i>
   </energy>
  </scstep>
  <scstep>
   <time name="dav">   86.09   86.35</time>
   <time name="total">   86.10   86.47</time>
   <energy>
    <i name="e_fr_energy">   -254.06171952 </i>
    <i name="e_wo_entrp">   -252.16953835 </i>
    <i name="e_0_energy">   -253.11562894 </i>
   </energy>
  </scstep>
  <scstep>
   <time name="dav">   88.08   88.10</time>
   <time name="total">   90.41   90.53</time>
   <energy>
    <i name="e_fr_energy">   -260.88126592 </i>
    <i name="e_wo_entrp">   -258.93170183 </i>
    <i name="e_0_energy">   -259.90648388 </i>
   </energy>
  </scstep>
  <scstep>
   <time name="diag">   10.75   10.85</time>
   <time name="diis">   29.26   29.57</time>
   <time name="orth">    3.08    3.11</time>
   <time name="total">   45.56   46.09</time>
   <energy>
    <i name="e_fr_energy">   -248.33919724 </i>
    <i name="e_wo_entrp">   -246.29721673 </i>
    <i name="e_0_energy">   -247.31820698 </i>
   </energy>
  </scstep>
  <scstep>
   <time name="diag">   10.83   10.84</time>
   <time name="diis">   30.87   30.96</time>
   <time name="orth">    3.04    3.06</time>
   <time name="total">   47.18   47.38</time>
   <energy>
    <i name="e_fr_energy">   -286.73296082 </i>
    <i name="e_wo_entrp">   -285.51978008 </i>
    <i name="e_0_energy">   -286.12637045 </i>
   </energy>
  </scstep>
  <scstep>
   <time name="diag">   12.76   12.76</time>
   <time name="diis">   28.64   28.67</time>
   <time name="orth">    3.03    3.04</time>
   <time name="total">   48.69   48.76</time>
   <energy>
    <i name="e_fr_energy">   -243.83019513 </i>
    <i name="e_wo_entrp">   -241.77388316 </i>
    <i name="e_0_energy">   -242.80203915 </i>
   </energy>
  </scstep>
  <scstep>
   <time name="diag">   10.87   10.86</time>
   <time name="diis">   28.71   28.87</time>
   <time name="orth">    3.00    3.01</time>
   <time name="total">   45.09   45.27</time>
   <energy>
    <i name="e_fr_energy">   -245.71376763 </i>
    <i name="e_wo_entrp">   -243.73622186 </i>
    <i name="e_0_energy">   -244.72499475 </i>
   </energy>
  </scstep>
  <scstep>
   <time name="diag">   10.78   10.83</time>
   <time name="diis">   29.09   29.32</time>
   <time name="orth">    2.94    2.94</time>
   <time name="total">   45.81   46.13</time>
   <energy>
    <i name="e_fr_energy">   -248.14442255 </i>
    <i name="e_wo_entrp">   -246.39917989 </i>
    <i name="e_0_energy">   -247.27180122 </i>
   </energy>
  </scstep>
  <scstep>
   <time name="diag">   10.74   10.76</time>
   <time name="diis">   29.74   29.81</time>
   <time name="orth">    3.03    3.12</time>
   <time name="total">   45.87   46.13</time>
   <energy>
    <i name="e_fr_energy">   -242.43788321 </i>
    <i name="e_wo_entrp">   -240.34787148 </i>
    <i name="e_0_energy">   -241.39287734 </i>
   </energy>
  </scstep>
  <scstep>
   <time name="diag">   10.84   10.83</time>
   <time name="diis">   30.74   31.21</time>
   <time name="orth">    3.00    3.01</time>
   <time name="total">   47.15   47.64</time>
   <energy>
    <i name="e_fr_energy">   -242.25262439 </i>
    <i name="e_wo_entrp">   -240.14426120 </i>
    <i name="e_0_energy">   -241.19844279 </i>
   </energy>
  </scstep>
  <scstep>
   <time name="diag">   10.80   10.79</time>
   <time name="diis">   30.99   31.47</time>
   <time name="orth">    2.99    3.00</time>
   <time name="total">   47.27   47.78</time>
   <energy>
    <i name="e_fr_energy">   -242.24898086 </i>
    <i name="e_wo_entrp">   -240.13811684 </i>
    <i name="e_0_energy">   -241.19354885 </i>
   </energy>
  </scstep>
  <scstep>
   <time name="diag">   11.91   11.99</time>
   <time name="diis">   29.43   29.69</time>
   <time name="orth">    2.97    3.02</time>
   <time name="total">   48.37   48.92</time>
   <energy>
    <i name="e_fr_energy">   -242.22015903 </i>
    <i name="e_wo_entrp">   -240.11540293 </i>
    <i name="e_0_energy">   -241.16778098 </i>
   </energy>
  </scstep>
  <scstep>
   <time name="diag">   10.75   10.84</time>
   <time name="diis">   30.27   30.34</time>
   <time name="orth">    2.95    3.03</time>
   <time name="total">   46.32   46.62</time>
   <energy>
    <i name="e_fr_energy">   -242.19729490 </i>
    <i name="e_wo_entrp">   -240.09484649 </i>
    <i name="e_0_energy">   -241.14607069 </i>
   </energy>
  </scstep>
  <scstep>
   <time name="diag">   10.76   10.86</time>
   <time name="diis">   29.71   30.45</time>
   <time name="orth">    2.98    3.02</time>
   <time name="total">   46.19   47.16</time>
   <energy>
    <i name="e_fr_energy">   -242.18584544 </i>
    <i name="e_wo_entrp">   -240.08178914 </i>
    <i name="e_0_energy">   -241.13381729 </i>
   </energy>
  </scstep>
  <scstep>
   <time name="diag">   10.71   10.70</time>
   <time name="diis">   30.06   30.06</time>
   <time name="orth">    3.01    3.02</time>
   <time name="total">   46.35   46.37</time>
   <energy>
    <i name="e_fr_energy">   -242.18170768 </i>
    <i name="e_wo_entrp">   -240.07509356 </i>
    <i name="e_0_energy">   -241.12840062 </i>
   </energy>
  </scstep>
  <scstep>
   <time name="diag">   10.88   10.87</time>
   <time name="diis">   29.68   29.67</time>
   <time name="orth">    3.13    3.16</time>
   <time name="total">   46.10   46.14</time>
   <energy>
    <i name="e_fr_energy">   -242.18109773 </i>
    <i name="e_wo_entrp">   -240.07344245 </i>
    <i name="e_0_energy">   -241.12727009 </i>
   </energy>
  </scstep>
  <scstep>
   <time name="diag">   10.84   10.85</time>
   <time name="diis">   29.27   29.62</time>
   <time name="orth">    3.02    3.05</time>
   <time name="total">   45.53   45.98</time>
   <energy>
    <i name="e_fr_energy">   -242.18061036 </i>
    <i name="e_wo_entrp">   -240.07269608 </i>
    <i name="e_0_energy">   -241.12665322 </i>
   </energy>
  </scstep>
  <scstep>
   <time name="diag">   10.75   10.83</time>
   <time name="diis">   29.49   29.57</time>
   <time name="orth">    3.19    3.19</time>
   <time name="total">   46.59   46.77</time>
   <energy>
    <i name="e_fr_energy">   -242.18039053 </i>
    <i name="e_wo_entrp">   -240.07255023 </i>
    <i name="e_0_energy">   -241.12647038 </i>
   </energy>
  </scstep>
  <scstep>
   <time name="diag">   10.99   10.98</time>
   <time name="diis">   29.07   29.26</time>
   <time name="orth">    3.22    3.26</time>
   <time name="total">   45.75   45.99</time>
   <energy>
    <i name="e_fr_energy">   -242.18034735 </i>
    <i name="e_wo_entrp">   -240.07118459 </i>
    <i name="e_0_energy">   -241.12576597 </i>
   </energy>
  </scstep>
  <scstep>
   <time name="diag">   10.86   10.90</time>
   <time name="diis">   30.26   30.49</time>
   <time name="orth">    2.91    2.93</time>
   <time name="total">   46.42   46.75</time>
   <energy>
    <i name="e_fr_energy">   -242.18046755 </i>
    <i name="e_wo_entrp">   -240.07148950 </i>
    <i name="e_0_energy">   -241.12597853 </i>
   </energy>
  </scstep>
  <scstep>
   <time name="diag">   10.60   10.77</time>
   <time name="diis">   29.82   30.02</time>
   <time name="orth">    3.08    3.12</time>
   <time name="total">   45.95   46.38</time>
   <energy>
    <i name="e_fr_energy">   -242.18074518 </i>
    <i name="e_wo_entrp">   -240.07212398 </i>
    <i name="e_0_energy">   -241.12643458 </i>
   </energy>
  </scstep>
  <scstep>
   <time name="diag">   10.87   10.86</time>
   <time name="diis">   30.49   30.60</time>
   <time name="orth">    2.98    3.00</time>
   <time name="total">   46.79   46.94</time>
   <energy>
    <i name="e_fr_energy">   -242.18091114 </i>
    <i name="e_wo_entrp">   -240.07235660 </i>
    <i name="e_0_energy">   -241.12663387 </i>
   </energy>
  </scstep>
  <scstep>
   <time name="diag">   10.73   10.82</time>
   <time name="diis">   28.91   29.05</time>
   <time name="orth">    3.03    3.04</time>
   <time name="total">   45.04   45.29</time>
   <energy>
    <i name="e_fr_energy">   -242.18130070 </i>
    <i name="e_wo_entrp">   -240.07290895 </i>
    <i name="e_0_energy">   -241.12710483 </i>
   </energy>
  </scstep>
  <scstep>
   <time name="diag">   10.67   10.72</time>
   <time name="diis">   29.13   29.36</time>
   <time name="orth">    3.04    3.06</time>
   <time name="total">   45.56   45.89</time>
   <energy>
    <i name="e_fr_energy">   -242.18153316 </i>
    <i name="e_wo_entrp">   -240.07307592 </i>
    <i name="e_0_energy">   -241.12730454 </i>
   </energy>
  </scstep>
  <scstep>
   <time name="diag">   10.80   10.80</time>
   <time name="diis">   29.51   30.43</time>
   <time name="orth">    3.17    3.20</time>
   <time name="total">   45.87   46.83</time>
   <energy>
    <i name="e_fr_energy">   -242.18185456 </i>
    <i name="e_wo_entrp">   -240.07338145 </i>
    <i name="e_0_energy">   -241.12761800 </i>
   </energy>
  </scstep>
  <scstep>
   <time name="diag">   10.48   10.75</time>
   <time name="diis">   26.50   26.93</time>
   <time name="orth">    2.99    3.00</time>
   <time name="total">   42.38   43.15</time>
   <energy>
    <i name="e_fr_energy">   -242.18206545 </i>
    <i name="e_wo_entrp">   -240.07355428 </i>
    <i name="e_0_energy">   -241.12780987 </i>
   </energy>
  </scstep>
  <scstep>
   <time name="diag">   10.89   10.95</time>
   <time name="diis">   21.96   22.33</time>
   <time name="orth">    2.94    3.02</time>
   <time name="total">   38.17   38.83</time>
   <energy>
    <i name="e_fr_energy">   -242.18218584 </i>
    <i name="e_wo_entrp">   -240.07364032 </i>
    <i name="e_0_energy">   -241.12791308 </i>
   </energy>
  </scstep>
  <scstep>
   <time name="diag">   10.58   10.83</time>
   <time name="diis">   21.19   21.37</time>
   <time name="orth">    2.89    2.93</time>
   <time name="total">   37.42   37.97</time>
   <energy>
    <i name="e_fr_energy">   -242.18233271 </i>
    <i name="e_wo_entrp">   -240.07375821 </i>
    <i name="e_0_energy">   -241.12804546 </i>
   </energy>
  </scstep>
  <scstep>
   <time name="diag">   10.66   10.71</time>
   <time name="diis">   20.76   20.92</time>
   <time name="orth">    3.00    3.05</time>
   <time name="total">   36.81   37.09</time>
   <energy>
    <i name="e_fr_energy">   -242.18243574 </i>
    <i name="e_wo_entrp">   -240.07386352 </i>
    <i name="e_0_energy">   -241.12814963 </i>
   </energy>
  </scstep>
  <scstep>
   <time name="diag">   10.86   10.86</time>
   <time name="diis">   20.20   20.19</time>
   <time name="orth">    2.95    3.02</time>
   <time name="total">   36.81   37.00</time>
   <energy>
    <i name="e_fr_energy">   -242.18250484 </i>
    <i name="e_wo_entrp">   -240.07395562 </i>
    <i name="e_0_energy">   -241.12823023 </i>
   </energy>
  </scstep>
  <scstep>
   <time name="diag">   10.70   10.73</time>
   <time name="diis">   18.43   18.42</time>
   <time name="orth">    2.97    2.99</time>
   <time name="total">   34.54   34.60</time>
   <energy>
    <i name="e_fr_energy">   -242.18252462 </i>
    <i name="e_wo_entrp">   -240.07397120 </i>
    <i name="e_0_energy">   -241.12824791 </i>
   </energy>
  </scstep>
  <scstep>
   <time name="diag">   10.76   10.84</time>
   <time name="diis">   18.23   18.34</time>
   <time name="orth">    3.09    3.10</time>
   <time name="total">   34.59   34.99</time>
   <energy>
    <i name="e_fr_energy">   -242.18254656 </i>
    <i name="e_wo_entrp">   -240.07398740 </i>
    <i name="e_0_energy">   -241.12826698 </i>
   </energy>
  </scstep>
  <scstep>
   <time name="diag">   10.80   10.86</time>
   <time name="diis">   15.91   16.04</time>
   <time name="orth">    3.15    3.19</time>
   <time name="total">   32.35   32.58</time>
   <energy>
    <i name="e_fr_energy">   -242.18255157 </i>
    <i name="e_wo_entrp">   -240.07399103 </i>
    <i name="e_0_energy">   -241.12827130 </i>
   </energy>
  </scstep>
  <scstep>
   <time name="diag">   19.84   20.04</time>
   <time name="diis">   15.99   15.98</time>
   <time name="orth">    3.00    3.01</time>
   <time name="total">   43.28   43.50</time>
   <energy>
    <i name="e_fr_energy">   -242.18255555 </i>
    <i name="e_wo_entrp">   -240.07399525 </i>
    <i name="e_0_energy">   -241.12827540 </i>
   </energy>
  </scstep>
  <scstep>
   <time name="diag">   10.79   10.78</time>
   <time name="diis">   15.34   15.37</time>
   <time name="orth">    3.08    3.09</time>
   <time name="total">   31.63   31.68</time>
   <energy>
    <i name="e_fr_energy">   -242.18255767 </i>
    <i name="e_wo_entrp">   -240.07399874 </i>
    <i name="e_0_energy">   -241.12827821 </i>
   </energy>
  </scstep>
  <scstep>
   <time name="diag">   10.62   10.88</time>
   <time name="diis">   14.99   15.03</time>
   <time name="orth">    3.08    3.09</time>
   <time name="total">   31.53   31.97</time>
   <energy>
    <i name="e_fr_energy">   -242.18255954 </i>
    <i name="e_wo_entrp">   -240.07400033 </i>
    <i name="e_0_energy">   -241.12827993 </i>
   </energy>
  </scstep>
  <scstep>
   <time name="diag">   10.83   11.00</time>
   <time name="diis">   13.50   13.53</time>
   <time name="orth">    3.08    3.10</time>
   <time name="total">   27.48   27.72</time>
   <energy>
    <i name="alphaZ">    961.48010405 </i>
    <i name="ewald">  90826.92431663 </i>
    <i name="hartreedc">-119029.25495020 </i>
    <i name="XCdc">    146.78974752 </i>
    <i name="pawpsdc">  32437.63404879 </i>
    <i name="pawaedc"> -31518.55781635 </i>
    <i name="eentropy">     -2.10855894 </i>
    <i name="bandstr">   -657.28869509 </i>
    <i name="atom">  26592.19924351 </i>
    <i name="e_fr_energy">   -242.18256008 </i>
    <i name="e_wo_entrp">   -240.07400114 </i>
    <i name="e_0_energy">   -241.12828061 </i>
   </energy>
  </scstep>
  <structure>
   <crystal>
    <varray name="basis" >
     <v>       8.42164176       0.00000000       0.00000000 </v>
     <v>       4.21082088       7.29335571       0.00000000 </v>
     <v>       0.00000000       0.00000000      21.87624171 </v>
    </varray>
    <i name="volume">   1343.68315334 </i>
    <varray name="rec_basis" >
     <v>       0.11874169      -0.06855555       0.00000000 </v>
     <v>       0.00000000       0.13711110       0.00000000 </v>
     <v>       0.00000000       0.00000000       0.04571169 </v>
    </varray>
   </crystal>
   <varray name="positions" >
    <v>       0.00000000       0.00000000       0.34283768 </v>
    <v>       0.33333333       0.00000000       0.34283768 </v>
    <v>       0.66666667       0.00000000       0.34283768 </v>
    <v>       0.00000000       0.33333333       0.34283768 </v>
    <v>       0.33333333       0.33333333       0.34283768 </v>
    <v>       0.66666667       0.33333333       0.34283768 </v>
    <v>       0.00000000       0.66666667       0.34283768 </v>
    <v>       0.33333333       0.66666667       0.34283768 </v>
    <v>       0.66666667       0.66666667       0.34283768 </v>
    <v>       0.11111111       0.11111111       0.44761256 </v>
    <v>       0.44444444       0.11111111       0.44761256 </v>
    <v>       0.77777778       0.11111111       0.44761256 </v>
    <v>       0.11111111       0.44444444       0.44761256 </v>
    <v>       0.44444444       0.44444444       0.44761256 </v>
    <v>       0.77777778       0.44444444       0.44761256 </v>
    <v>       0.11111111       0.77777778       0.44761256 </v>
    <v>       0.44444444       0.77777778       0.44761256 </v>
    <v>       0.77777778       0.77777778       0.44761256 </v>
    <v>       0.89081184       0.22183169       0.55074309 </v>
    <v>       0.22410134       0.22340812       0.55188838 </v>
    <v>       0.55600762       0.22179499       0.55264501 </v>
    <v>       0.89011955       0.55610029       0.55134985 </v>
    <v>       0.22419268       0.55185140       0.55324374 </v>
    <v>       0.55583878       0.55688323       0.55075797 </v>
    <v>       0.88598494       0.89004293       0.55329412 </v>
    <v>       0.22158868       0.88756281       0.54985190 </v>
    <v>       0.55739148       0.89012140       0.55187006 </v>
    <v>       0.00188142       0.99973661       0.65623790 </v>
    <v>       0.33034401       0.99545032       0.65373816 </v>
    <v>       0.66639200       0.00463833       0.66519689 </v>
    <v>       0.00370872       0.33474723       0.65634965 </v>
    <v>       0.34032806       0.33132308       0.66518066 </v>
    <v>       0.67406012       0.33843552       0.65461862 </v>
    <v>       0.00265217       0.66705452       0.65732156 </v>
    <v>       0.33520924       0.66654733       0.65619223 </v>
    <v>       0.66970527       0.66876595       0.65639440 </v>
    <v>       0.49594417       0.16033706       0.73540382 </v>
    <v>       0.56876907       0.23103239       0.78476605 </v>
    <v>       0.42543641       0.09170351       0.75529954 </v>
    <v>       0.45438242       0.33076682       0.81346941 </v>
    <v>       0.64352780       0.29815134       0.76732478 </v>
    <v>       0.66262242       0.11640263       0.81460462 </v>
   </varray>
  </structure>
  <varray name="forces" >
   <v>      -0.02104953       0.03426951      -0.08576614 </v>
   <v>      -0.01227557      -0.00560396      -0.06029705 </v>
   <v>       0.00739769       0.00079164      -0.04748427 </v>
   <v>      -0.01864546      -0.01032156      -0.05539864 </v>
   <v>       0.00253849       0.00813451      -0.04724527 </v>
   <v>       0.00403597       0.00490538      -0.07453779 </v>
   <v>       0.01315145       0.00941699      -0.03299858 </v>
   <v>       0.01869959      -0.03285287      -0.08631112 </v>
   <v>      -0.02040851      -0.00865676      -0.05567184 </v>
   <v>      -0.00020884       0.00609954      -0.06882081 </v>
   <v>       0.02019052       0.00989254       0.18649089 </v>
   <v>      -0.02677041      -0.07378607       0.12252742 </v>
   <v>       0.06987603       0.02922167       0.18490499 </v>
   <v>      -0.07277167       0.00844085       0.12328380 </v>
   <v>       0.01661758       0.00744213       0.01016013 </v>
   <v>      -0.03902656      -0.02467825      -0.07955904 </v>
   <v>       0.00762717      -0.00755203      -0.07105940 </v>
   <v>       0.06541137       0.04097848       0.18696563 </v>
   <v>       0.00104652       0.00039113      -0.00679581 </v>
   <v>       0.00111198      -0.00227202      -0.00655101 </v>
   <v>      -0.00234912       0.00345862      -0.00432517 </v>
   <v>       0.00062279      -0.00319649      -0.00816074 </v>
   <v>       0.00150296       0.00046452      -0.00803578 </v>
   <v>       0.00161204      -0.00169717      -0.00896910 </v>
   <v>      -0.00056724       0.00362990      -0.00629395 </v>
   <v>       0.00015937       0.00008882      -0.01107536 </v>
   <v>      -0.00238259      -0.00038779      -0.00764790 </v>
   <v>      -0.00068101       0.00097648      -0.00061539 </v>
   <v>       0.01019263       0.00692478       0.00294365 </v>
   <v>       0.00205191       0.00553855      -0.00544127 </v>
   <v>       0.00137615      -0.00743695       0.00451735 </v>
   <v>      -0.00127612      -0.00158373       0.00348239 </v>
   <v>      -0.00784502      -0.00313145       0.00527524 </v>
   <v>      -0.00176173       0.00093033      -0.00164340 </v>
   <v>       0.00501584      -0.00265187       0.01388436 </v>
   <v>      -0.00238648      -0.00149649       0.00208590 </v>
   <v>      -0.00629881       0.00070811      -0.00186296 </v>
   <v>       0.00013679      -0.01081861      -0.00243901 </v>
   <v>       0.00347116       0.00112157      -0.00597449 </v>
   <v>      -0.01344389       0.00504729       0.00623847 </v>
   <v>       0.00132163       0.01237353      -0.00079968 </v>
   <v>      -0.00501907      -0.00312277      -0.00097922 </v>
  </varray>
  <varray name="stress" >
   <v>     -42.51961098       1.49447276      -0.22453943 </v>
   <v>       1.49447278     -44.24958091       0.02751205 </v>
   <v>      -0.22453938       0.02751214      -0.58358160 </v>
  </varray>
  <energy>
   <i name="e_fr_energy">   -242.18256008 </i>
   <i name="e_wo_entrp">   -241.12828061 </i>
   <i name="e_0_energy">     -2.10855894 </i>
  </energy>
  <time name="totalsc"> 1826.79 1840.35</time>
  <eigenvalues>
   <array>
    <dimension dim="1">band</dimension>
    <dimension dim="2">kpoint</dimension>
    <dimension dim="3">spin</dimension>
    <field>eigene</field>
    <field>occ</field>
    <set>
     <set comment="spin 1">
      <set comment="kpoint 1">
       <r>  -12.8247    1.0000 </r>
       <r>   -9.0393    1.0000 </r>
       <r>   -7.7307    1.0000 </r>
       <r>   -6.4438    1.0000 </r>
       <r>   -5.6093    1.0000 </r>
       <r>   -5.4486    1.0000 </r>
       <r>   -5.3431    1.0000 </r>
       <r>   -5.3357    1.0000 </r>
       <r>   -5.2657    1.0000 </r>
       <r>   -5.1903    1.0000 </r>
       <r>   -5.1856    1.0000 </r>
       <r>   -5.1537    1.0000 </r>
       <r>   -5.1107    1.0000 </r>
       <r>   -4.7419    1.0000 </r>
       <r>   -4.7263    1.0000 </r>
       <r>   -4.6896    1.0000 </r>
       <r>   -4.6808    1.0000 </r>
       <r>   -4.6539    1.0000 </r>
       <r>   -4.6423    1.0000 </r>
       <r>   -4.3984    1.0000 </r>
       <r>   -4.3770    1.0000 </r>
       <r>   -4.2193    1.0000 </r>
       <r>   -4.1824    1.0000 </r>
       <r>   -4.1745    1.0000 </r>
       <r>   -4.1350    1.0000 </r>
       <r>   -4.0998    1.0000 </r>
       <r>   -4.0759    1.0000 </r>
       <r>   -4.0271    1.0000 </r>
       <r>   -3.9774    1.0000 </r>
       <r>   -3.9428    1.0000 </r>
       <r>   -3.8854    1.0000 </r>
       <r>   -3.8542    1.0000 </r>
       <r>   -3.8193    1.0000 </r>
       <r>   -3.7831    1.0000 </r>
       <r>   -3.7731    1.0000 </r>
       <r>   -3.7518    1.0000 </r>
       <r>   -3.7416    1.0000 </r>
       <r>   -3.7192    1.0000 </r>
       <r>   -3.7036    1.0000 </r>
       <r>   -3.6891    1.0000 </r>
       <r>   -3.6511    1.0000 </r>
       <r>   -3.6359    1.0000 </r>
       <r>   -3.5464    1.0000 </r>
       <r>   -3.5346    1.0000 </r>
       <r>   -3.4500    1.0000 </r>
       <r>   -3.1204    1.0000 </r>
       <r>   -3.1131    1.0000 </r>
       <r>   -3.0926    1.0000 </r>
       <r>   -3.0887    1.0000 </r>
       <r>   -3.0721    1.0000 </r>
       <r>   -3.0705    1.0000 </r>
       <r>   -3.0120    1.0000 </r>
       <r>   -2.9669    1.0000 </r>
       <r>   -2.9214    1.0000 </r>
       <r>   -2.8807    1.0000 </r>
       <r>   -2.8251    1.0000 </r>
       <r>   -2.8211    1.0000 </r>
       <r>   -2.7739    1.0000 </r>
       <r>   -2.7490    1.0000 </r>
       <r>   -2.5772    1.0000 </r>
       <r>   -2.3174    1.0000 </r>
       <r>   -2.2817    1.0000 </r>
       <r>   -2.2452    1.0000 </r>
       <r>   -2.2211    1.0000 </r>
       <r>   -2.2054    1.0000 </r>
       <r>   -2.1786    1.0000 </r>
       <r>   -2.1580    1.0000 </r>
       <r>   -2.1246    1.0000 </r>
       <r>   -2.1222    1.0000 </r>
       <r>   -2.1027    1.0000 </r>
       <r>   -2.0993    1.0000 </r>
       <r>   -2.0644    1.0000 </r>
       <r>   -2.0431    1.0000 </r>
       <r>   -2.0263    1.0000 </r>
       <r>   -2.0005    1.0000 </r>
       <r>   -1.9837    1.0000 </r>
       <r>   -1.9569    1.0000 </r>
       <r>   -1.9112    1.0000 </r>
       <r>   -1.9076    1.0000 </r>
       <r>   -1.8719    1.0000 </r>
       <r>   -1.8594    1.0000 </r>
       <r>   -1.8582    1.0000 </r>
       <r>   -1.8345    1.0000 </r>
       <r>   -1.7917    1.0000 </r>
       <r>   -1.7362    1.0000 </r>
       <r>   -1.7300    1.0000 </r>
       <r>   -1.7165    1.0000 </r>
       <r>   -1.6773    1.0000 </r>
       <r>   -1.6155    1.0000 </r>
       <r>   -1.5729    1.0000 </r>
       <r>   -1.5553    1.0000 </r>
       <r>   -1.5342    1.0000 </r>
       <r>   -1.5178    1.0000 </r>
       <r>   -1.5133    1.0000 </r>
       <r>   -1.4954    1.0000 </r>
       <r>   -1.4701    1.0000 </r>
       <r>   -1.4580    1.0000 </r>
       <r>   -1.4174    1.0000 </r>
       <r>   -1.3841    1.0000 </r>
       <r>   -1.3736    1.0000 </r>
       <r>   -1.3720    1.0000 </r>
       <r>   -1.3429    1.0000 </r>
       <r>   -1.3048    1.0000 </r>
       <r>   -1.2405    1.0000 </r>
       <r>   -1.2166    1.0000 </r>
       <r>   -1.1981    1.0000 </r>
       <r>   -1.1928    1.0000 </r>
       <r>   -1.1781    1.0000 </r>
       <r>   -1.1706    1.0000 </r>
       <r>   -1.1365    1.0000 </r>
       <r>   -1.1244    1.0000 </r>
       <r>   -1.0306    1.0000 </r>
       <r>   -1.0040    1.0000 </r>
       <r>   -0.9440    1.0000 </r>
       <r>   -0.8569    1.0000 </r>
       <r>   -0.8445    1.0000 </r>
       <r>   -0.7634    1.0000 </r>
       <r>   -0.7167    1.0000 </r>
       <r>   -0.6905    1.0000 </r>
       <r>   -0.6098    1.0000 </r>
       <r>   -0.5945    1.0000 </r>
       <r>   -0.5732    1.0000 </r>
       <r>   -0.5652    1.0000 </r>
       <r>   -0.5550    1.0000 </r>
       <r>   -0.4990    1.0000 </r>
       <r>   -0.4876    1.0000 </r>
       <r>   -0.4537    1.0000 </r>
       <r>   -0.4205    1.0000 </r>
       <r>   -0.3293    1.0000 </r>
       <r>   -0.2749    1.0000 </r>
       <r>   -0.1856    1.0000 </r>
       <r>   -0.1481    1.0000 </r>
       <r>   -0.1217    1.0000 </r>
       <r>   -0.0991    1.0000 </r>
       <r>   -0.0360    1.0000 </r>
       <r>   -0.0235    1.0000 </r>
       <r>   -0.0163    1.0000 </r>
       <r>   -0.0103    1.0000 </r>
       <r>    0.0200    1.0000 </r>
       <r>    0.0696    1.0000 </r>
       <r>    0.0992    1.0000 </r>
       <r>    0.1267    1.0000 </r>
       <r>    0.1582    1.0000 </r>
       <r>    0.2186    1.0000 </r>
       <r>    0.2365    1.0000 </r>
       <r>    0.2742    1.0000 </r>
       <r>    0.3034    1.0000 </r>
       <r>    0.3306    1.0000 </r>
       <r>    0.3451    1.0000 </r>
       <r>    0.3801    1.0000 </r>
       <r>    0.4117    1.0000 </r>
       <r>    0.4243    1.0000 </r>
       <r>    0.5338    0.9999 </r>
       <r>    0.5467    0.9999 </r>
       <r>    0.5570    0.9999 </r>
       <r>    0.5759    0.9999 </r>
       <r>    0.6097    0.9999 </r>
       <r>    0.6217    0.9998 </r>
       <r>    0.6484    0.9998 </r>
       <r>    0.6560    0.9998 </r>
       <r>    0.7086    0.9996 </r>
       <r>    0.7131    0.9996 </r>
       <r>    0.7572    0.9993 </r>
       <r>    0.7579    0.9993 </r>
       <r>    0.8013    0.9990 </r>
       <r>    0.8140    0.9988 </r>
       <r>    0.8161    0.9988 </r>
       <r>    0.8473    0.9984 </r>
       <r>    0.8692    0.9980 </r>
       <r>    0.8818    0.9977 </r>
       <r>    0.9015    0.9972 </r>
       <r>    0.9081    0.9970 </r>
       <r>    0.9386    0.9960 </r>
       <r>    0.9628    0.9949 </r>
       <r>    0.9750    0.9943 </r>
       <r>    0.9909    0.9933 </r>
       <r>    0.9997    0.9927 </r>
       <r>    1.0235    0.9907 </r>
       <r>    1.0628    0.9863 </r>
       <r>    1.0729    0.9848 </r>
       <r>    1.1126    0.9776 </r>
       <r>    1.1488    0.9682 </r>
       <r>    1.1614    0.9641 </r>
       <r>    1.1823    0.9561 </r>
       <r>    1.2119    0.9418 </r>
       <r>    1.2155    0.9398 </r>
       <r>    1.2390    0.9250 </r>
       <r>    1.2626    0.9070 </r>
       <r>    1.2688    0.9016 </r>
       <r>    1.2726    0.8981 </r>
       <r>    1.2849    0.8864 </r>
       <r>    1.3122    0.8558 </r>
       <r>    1.3190    0.8472 </r>
       <r>    1.3429    0.8138 </r>
       <r>    1.4162    0.6773 </r>
       <r>    1.5136    0.4419 </r>
       <r>    1.5362    0.3872 </r>
       <r>    1.5401    0.3780 </r>
       <r>    1.5797    0.2903 </r>
       <r>    1.5819    0.2857 </r>
       <r>    1.6147    0.2237 </r>
       <r>    1.9287    0.0123 </r>
       <r>    1.9910    0.0066 </r>
       <r>    2.2255    0.0006 </r>
       <r>    2.3199    0.0002 </r>
       <r>    2.4377    0.0001 </r>
       <r>    2.5049    0.0000 </r>
       <r>    2.6272    0.0000 </r>
       <r>    3.3666    0.0000 </r>
       <r>    4.0171    0.0000 </r>
       <r>    4.4785    0.0000 </r>
       <r>    4.7187    0.0000 </r>
       <r>    4.7280    0.0000 </r>
       <r>    4.9359    0.0000 </r>
       <r>    5.2933    0.0000 </r>
       <r>    5.6274    0.0000 </r>
       <r>    5.8001    0.0000 </r>
       <r>    5.9364    0.0000 </r>
       <r>    6.1096    0.0000 </r>
       <r>    6.2964    0.0000 </r>
       <r>    6.3089    0.0000 </r>
       <r>    6.6552    0.0000 </r>
       <r>    6.7439    0.0000 </r>
       <r>    6.8364    0.0000 </r>
       <r>    7.1081    0.0000 </r>
      </set>
      <set comment="kpoint 2">
       <r>  -12.8246    1.0000 </r>
       <r>   -9.0389    1.0000 </r>
       <r>   -7.7308    1.0000 </r>
       <r>   -6.4436    1.0000 </r>
       <r>   -5.6020    1.0000 </r>
       <r>   -5.4580    1.0000 </r>
       <r>   -5.3469    1.0000 </r>
       <r>   -5.3321    1.0000 </r>
       <r>   -5.2656    1.0000 </r>
       <r>   -5.1967    1.0000 </r>
       <r>   -5.1734    1.0000 </r>
       <r>   -5.1511    1.0000 </r>
       <r>   -5.1156    1.0000 </r>
       <r>   -4.7603    1.0000 </r>
       <r>   -4.7110    1.0000 </r>
       <r>   -4.7022    1.0000 </r>
       <r>   -4.6642    1.0000 </r>
       <r>   -4.6565    1.0000 </r>
       <r>   -4.6385    1.0000 </r>
       <r>   -4.3959    1.0000 </r>
       <r>   -4.3803    1.0000 </r>
       <r>   -4.2127    1.0000 </r>
       <r>   -4.1904    1.0000 </r>
       <r>   -4.1743    1.0000 </r>
       <r>   -4.1383    1.0000 </r>
       <r>   -4.1113    1.0000 </r>
       <r>   -4.0506    1.0000 </r>
       <r>   -4.0279    1.0000 </r>
       <r>   -3.9911    1.0000 </r>
       <r>   -3.9401    1.0000 </r>
       <r>   -3.8651    1.0000 </r>
       <r>   -3.8513    1.0000 </r>
       <r>   -3.8163    1.0000 </r>
       <r>   -3.7938    1.0000 </r>
       <r>   -3.7777    1.0000 </r>
       <r>   -3.7649    1.0000 </r>
       <r>   -3.7390    1.0000 </r>
       <r>   -3.7235    1.0000 </r>
       <r>   -3.7083    1.0000 </r>
       <r>   -3.6920    1.0000 </r>
       <r>   -3.6524    1.0000 </r>
       <r>   -3.6313    1.0000 </r>
       <r>   -3.5464    1.0000 </r>
       <r>   -3.5247    1.0000 </r>
       <r>   -3.4574    1.0000 </r>
       <r>   -3.1221    1.0000 </r>
       <r>   -3.1110    1.0000 </r>
       <r>   -3.1081    1.0000 </r>
       <r>   -3.0817    1.0000 </r>
       <r>   -3.0719    1.0000 </r>
       <r>   -3.0560    1.0000 </r>
       <r>   -3.0144    1.0000 </r>
       <r>   -2.9683    1.0000 </r>
       <r>   -2.9368    1.0000 </r>
       <r>   -2.8692    1.0000 </r>
       <r>   -2.8321    1.0000 </r>
       <r>   -2.8218    1.0000 </r>
       <r>   -2.7667    1.0000 </r>
       <r>   -2.7461    1.0000 </r>
       <r>   -2.5881    1.0000 </r>
       <r>   -2.3168    1.0000 </r>
       <r>   -2.2825    1.0000 </r>
       <r>   -2.2421    1.0000 </r>
       <r>   -2.2266    1.0000 </r>
       <r>   -2.1952    1.0000 </r>
       <r>   -2.1765    1.0000 </r>
       <r>   -2.1512    1.0000 </r>
       <r>   -2.1357    1.0000 </r>
       <r>   -2.1264    1.0000 </r>
       <r>   -2.1099    1.0000 </r>
       <r>   -2.0875    1.0000 </r>
       <r>   -2.0756    1.0000 </r>
       <r>   -2.0561    1.0000 </r>
       <r>   -2.0107    1.0000 </r>
       <r>   -1.9961    1.0000 </r>
       <r>   -1.9883    1.0000 </r>
       <r>   -1.9554    1.0000 </r>
       <r>   -1.9183    1.0000 </r>
       <r>   -1.8977    1.0000 </r>
       <r>   -1.8812    1.0000 </r>
       <r>   -1.8595    1.0000 </r>
       <r>   -1.8402    1.0000 </r>
       <r>   -1.8174    1.0000 </r>
       <r>   -1.7892    1.0000 </r>
       <r>   -1.7691    1.0000 </r>
       <r>   -1.7253    1.0000 </r>
       <r>   -1.7139    1.0000 </r>
       <r>   -1.6942    1.0000 </r>
       <r>   -1.5981    1.0000 </r>
       <r>   -1.5869    1.0000 </r>
       <r>   -1.5579    1.0000 </r>
       <r>   -1.5455    1.0000 </r>
       <r>   -1.5284    1.0000 </r>
       <r>   -1.5097    1.0000 </r>
       <r>   -1.4933    1.0000 </r>
       <r>   -1.4565    1.0000 </r>
       <r>   -1.4428    1.0000 </r>
       <r>   -1.4134    1.0000 </r>
       <r>   -1.4105    1.0000 </r>
       <r>   -1.3771    1.0000 </r>
       <r>   -1.3504    1.0000 </r>
       <r>   -1.3376    1.0000 </r>
       <r>   -1.3107    1.0000 </r>
       <r>   -1.2335    1.0000 </r>
       <r>   -1.2126    1.0000 </r>
       <r>   -1.1950    1.0000 </r>
       <r>   -1.1925    1.0000 </r>
       <r>   -1.1763    1.0000 </r>
       <r>   -1.1673    1.0000 </r>
       <r>   -1.1436    1.0000 </r>
       <r>   -1.1027    1.0000 </r>
       <r>   -1.0676    1.0000 </r>
       <r>   -1.0322    1.0000 </r>
       <r>   -0.9528    1.0000 </r>
       <r>   -0.8664    1.0000 </r>
       <r>   -0.8080    1.0000 </r>
       <r>   -0.7637    1.0000 </r>
       <r>   -0.6890    1.0000 </r>
       <r>   -0.6635    1.0000 </r>
       <r>   -0.6386    1.0000 </r>
       <r>   -0.6009    1.0000 </r>
       <r>   -0.5813    1.0000 </r>
       <r>   -0.5598    1.0000 </r>
       <r>   -0.5400    1.0000 </r>
       <r>   -0.5246    1.0000 </r>
       <r>   -0.4558    1.0000 </r>
       <r>   -0.4281    1.0000 </r>
       <r>   -0.3647    1.0000 </r>
       <r>   -0.3448    1.0000 </r>
       <r>   -0.2816    1.0000 </r>
       <r>   -0.1792    1.0000 </r>
       <r>   -0.1466    1.0000 </r>
       <r>   -0.1305    1.0000 </r>
       <r>   -0.0710    1.0000 </r>
       <r>   -0.0344    1.0000 </r>
       <r>   -0.0213    1.0000 </r>
       <r>   -0.0096    1.0000 </r>
       <r>   -0.0082    1.0000 </r>
       <r>    0.0069    1.0000 </r>
       <r>    0.0474    1.0000 </r>
       <r>    0.0821    1.0000 </r>
       <r>    0.1141    1.0000 </r>
       <r>    0.1437    1.0000 </r>
       <r>    0.2018    1.0000 </r>
       <r>    0.2351    1.0000 </r>
       <r>    0.2643    1.0000 </r>
       <r>    0.3091    1.0000 </r>
       <r>    0.3242    1.0000 </r>
       <r>    0.3391    1.0000 </r>
       <r>    0.3810    1.0000 </r>
       <r>    0.4178    1.0000 </r>
       <r>    0.4371    1.0000 </r>
       <r>    0.5268    0.9999 </r>
       <r>    0.5446    0.9999 </r>
       <r>    0.5658    0.9999 </r>
       <r>    0.5846    0.9999 </r>
       <r>    0.6081    0.9999 </r>
       <r>    0.6217    0.9998 </r>
       <r>    0.6549    0.9998 </r>
       <r>    0.6885    0.9997 </r>
       <r>    0.7123    0.9996 </r>
       <r>    0.7255    0.9995 </r>
       <r>    0.7326    0.9995 </r>
       <r>    0.7524    0.9994 </r>
       <r>    0.7715    0.9992 </r>
       <r>    0.8218    0.9988 </r>
       <r>    0.8331    0.9986 </r>
       <r>    0.8448    0.9984 </r>
       <r>    0.8759    0.9979 </r>
       <r>    0.8918    0.9975 </r>
       <r>    0.9018    0.9972 </r>
       <r>    0.9200    0.9967 </r>
       <r>    0.9302    0.9963 </r>
       <r>    0.9504    0.9955 </r>
       <r>    0.9639    0.9949 </r>
       <r>    0.9822    0.9938 </r>
       <r>    0.9930    0.9931 </r>
       <r>    1.0229    0.9908 </r>
       <r>    1.0505    0.9878 </r>
       <r>    1.0826    0.9833 </r>
       <r>    1.1215    0.9756 </r>
       <r>    1.1361    0.9719 </r>
       <r>    1.1618    0.9639 </r>
       <r>    1.1780    0.9578 </r>
       <r>    1.1972    0.9493 </r>
       <r>    1.2061    0.9449 </r>
       <r>    1.2363    0.9269 </r>
       <r>    1.2411    0.9236 </r>
       <r>    1.2715    0.8992 </r>
       <r>    1.2842    0.8870 </r>
       <r>    1.2914    0.8797 </r>
       <r>    1.3116    0.8565 </r>
       <r>    1.3230    0.8420 </r>
       <r>    1.3536    0.7970 </r>
       <r>    1.4340    0.6373 </r>
       <r>    1.5101    0.4508 </r>
       <r>    1.5224    0.4205 </r>
       <r>    1.5615    0.3292 </r>
       <r>    1.5709    0.3089 </r>
       <r>    1.5818    0.2861 </r>
       <r>    1.6116    0.2293 </r>
       <r>    1.8816    0.0196 </r>
       <r>    2.0333    0.0044 </r>
       <r>    2.2353    0.0006 </r>
       <r>    2.3317    0.0002 </r>
       <r>    2.4037    0.0001 </r>
       <r>    2.5419    0.0000 </r>
       <r>    2.6041    0.0000 </r>
       <r>    3.3448    0.0000 </r>
       <r>    4.0833    0.0000 </r>
       <r>    4.4739    0.0000 </r>
       <r>    4.5928    0.0000 </r>
       <r>    4.7821    0.0000 </r>
       <r>    4.9724    0.0000 </r>
       <r>    5.2600    0.0000 </r>
       <r>    5.6866    0.0000 </r>
       <r>    5.8014    0.0000 </r>
       <r>    5.9010    0.0000 </r>
       <r>    6.0959    0.0000 </r>
       <r>    6.2857    0.0000 </r>
       <r>    6.3738    0.0000 </r>
       <r>    6.6464    0.0000 </r>
       <r>    6.7194    0.0000 </r>
       <r>    6.7477    0.0000 </r>
       <r>    6.9442    0.0000 </r>
      </set>
      <set comment="kpoint 3">
       <r>  -12.8246    1.0000 </r>
       <r>   -9.0389    1.0000 </r>
       <r>   -7.7308    1.0000 </r>
       <r>   -6.4436    1.0000 </r>
       <r>   -5.6022    1.0000 </r>
       <r>   -5.4560    1.0000 </r>
       <r>   -5.3477    1.0000 </r>
       <r>   -5.3333    1.0000 </r>
       <r>   -5.2656    1.0000 </r>
       <r>   -5.1975    1.0000 </r>
       <r>   -5.1744    1.0000 </r>
       <r>   -5.1502    1.0000 </r>
       <r>   -5.1147    1.0000 </r>
       <r>   -4.7604    1.0000 </r>
       <r>   -4.7107    1.0000 </r>
       <r>   -4.7027    1.0000 </r>
       <r>   -4.6633    1.0000 </r>
       <r>   -4.6564    1.0000 </r>
       <r>   -4.6388    1.0000 </r>
       <r>   -4.3963    1.0000 </r>
       <r>   -4.3798    1.0000 </r>
       <r>   -4.2128    1.0000 </r>
       <r>   -4.1907    1.0000 </r>
       <r>   -4.1744    1.0000 </r>
       <r>   -4.1382    1.0000 </r>
       <r>   -4.1111    1.0000 </r>
       <r>   -4.0505    1.0000 </r>
       <r>   -4.0277    1.0000 </r>
       <r>   -3.9914    1.0000 </r>
       <r>   -3.9399    1.0000 </r>
       <r>   -3.8653    1.0000 </r>
       <r>   -3.8511    1.0000 </r>
       <r>   -3.8156    1.0000 </r>
       <r>   -3.7931    1.0000 </r>
       <r>   -3.7766    1.0000 </r>
       <r>   -3.7639    1.0000 </r>
       <r>   -3.7396    1.0000 </r>
       <r>   -3.7255    1.0000 </r>
       <r>   -3.7094    1.0000 </r>
       <r>   -3.6924    1.0000 </r>
       <r>   -3.6540    1.0000 </r>
       <r>   -3.6301    1.0000 </r>
       <r>   -3.5451    1.0000 </r>
       <r>   -3.5247    1.0000 </r>
       <r>   -3.4578    1.0000 </r>
       <r>   -3.1214    1.0000 </r>
       <r>   -3.1111    1.0000 </r>
       <r>   -3.1077    1.0000 </r>
       <r>   -3.0830    1.0000 </r>
       <r>   -3.0729    1.0000 </r>
       <r>   -3.0560    1.0000 </r>
       <r>   -3.0137    1.0000 </r>
       <r>   -2.9684    1.0000 </r>
       <r>   -2.9362    1.0000 </r>
       <r>   -2.8693    1.0000 </r>
       <r>   -2.8314    1.0000 </r>
       <r>   -2.8228    1.0000 </r>
       <r>   -2.7667    1.0000 </r>
       <r>   -2.7460    1.0000 </r>
       <r>   -2.5880    1.0000 </r>
       <r>   -2.3168    1.0000 </r>
       <r>   -2.2832    1.0000 </r>
       <r>   -2.2429    1.0000 </r>
       <r>   -2.2275    1.0000 </r>
       <r>   -2.1961    1.0000 </r>
       <r>   -2.1768    1.0000 </r>
       <r>   -2.1515    1.0000 </r>
       <r>   -2.1345    1.0000 </r>
       <r>   -2.1262    1.0000 </r>
       <r>   -2.1095    1.0000 </r>
       <r>   -2.0873    1.0000 </r>
       <r>   -2.0748    1.0000 </r>
       <r>   -2.0559    1.0000 </r>
       <r>   -2.0107    1.0000 </r>
       <r>   -1.9973    1.0000 </r>
       <r>   -1.9883    1.0000 </r>
       <r>   -1.9554    1.0000 </r>
       <r>   -1.9192    1.0000 </r>
       <r>   -1.8972    1.0000 </r>
       <r>   -1.8825    1.0000 </r>
       <r>   -1.8600    1.0000 </r>
       <r>   -1.8392    1.0000 </r>
       <r>   -1.8148    1.0000 </r>
       <r>   -1.7857    1.0000 </r>
       <r>   -1.7682    1.0000 </r>
       <r>   -1.7244    1.0000 </r>
       <r>   -1.7175    1.0000 </r>
       <r>   -1.6966    1.0000 </r>
       <r>   -1.5965    1.0000 </r>
       <r>   -1.5875    1.0000 </r>
       <r>   -1.5591    1.0000 </r>
       <r>   -1.5453    1.0000 </r>
       <r>   -1.5291    1.0000 </r>
       <r>   -1.5098    1.0000 </r>
       <r>   -1.4924    1.0000 </r>
       <r>   -1.4563    1.0000 </r>
       <r>   -1.4423    1.0000 </r>
       <r>   -1.4127    1.0000 </r>
       <r>   -1.4097    1.0000 </r>
       <r>   -1.3769    1.0000 </r>
       <r>   -1.3510    1.0000 </r>
       <r>   -1.3373    1.0000 </r>
       <r>   -1.3118    1.0000 </r>
       <r>   -1.2344    1.0000 </r>
       <r>   -1.2130    1.0000 </r>
       <r>   -1.1950    1.0000 </r>
       <r>   -1.1926    1.0000 </r>
       <r>   -1.1755    1.0000 </r>
       <r>   -1.1682    1.0000 </r>
       <r>   -1.1412    1.0000 </r>
       <r>   -1.1014    1.0000 </r>
       <r>   -1.0688    1.0000 </r>
       <r>   -1.0331    1.0000 </r>
       <r>   -0.9543    1.0000 </r>
       <r>   -0.8652    1.0000 </r>
       <r>   -0.8080    1.0000 </r>
       <r>   -0.7646    1.0000 </r>
       <r>   -0.6889    1.0000 </r>
       <r>   -0.6637    1.0000 </r>
       <r>   -0.6396    1.0000 </r>
       <r>   -0.6008    1.0000 </r>
       <r>   -0.5813    1.0000 </r>
       <r>   -0.5592    1.0000 </r>
       <r>   -0.5397    1.0000 </r>
       <r>   -0.5241    1.0000 </r>
       <r>   -0.4549    1.0000 </r>
       <r>   -0.4280    1.0000 </r>
       <r>   -0.3646    1.0000 </r>
       <r>   -0.3443    1.0000 </r>
       <r>   -0.2816    1.0000 </r>
       <r>   -0.1782    1.0000 </r>
       <r>   -0.1470    1.0000 </r>
       <r>   -0.1302    1.0000 </r>
       <r>   -0.0714    1.0000 </r>
       <r>   -0.0347    1.0000 </r>
       <r>   -0.0213    1.0000 </r>
       <r>   -0.0098    1.0000 </r>
       <r>   -0.0079    1.0000 </r>
       <r>    0.0077    1.0000 </r>
       <r>    0.0474    1.0000 </r>
       <r>    0.0832    1.0000 </r>
       <r>    0.1142    1.0000 </r>
       <r>    0.1434    1.0000 </r>
       <r>    0.2020    1.0000 </r>
       <r>    0.2350    1.0000 </r>
       <r>    0.2653    1.0000 </r>
       <r>    0.3100    1.0000 </r>
       <r>    0.3245    1.0000 </r>
       <r>    0.3365    1.0000 </r>
       <r>    0.3810    1.0000 </r>
       <r>    0.4173    1.0000 </r>
       <r>    0.4367    1.0000 </r>
       <r>    0.5259    0.9999 </r>
       <r>    0.5447    0.9999 </r>
       <r>    0.5646    0.9999 </r>
       <r>    0.5850    0.9999 </r>
       <r>    0.6085    0.9999 </r>
       <r>    0.6216    0.9998 </r>
       <r>    0.6552    0.9998 </r>
       <r>    0.6894    0.9997 </r>
       <r>    0.7128    0.9996 </r>
       <r>    0.7253    0.9995 </r>
       <r>    0.7326    0.9995 </r>
       <r>    0.7526    0.9994 </r>
       <r>    0.7726    0.9992 </r>
       <r>    0.8211    0.9988 </r>
       <r>    0.8317    0.9986 </r>
       <r>    0.8450    0.9984 </r>
       <r>    0.8758    0.9979 </r>
       <r>    0.8921    0.9975 </r>
       <r>    0.9022    0.9972 </r>
       <r>    0.9194    0.9967 </r>
       <r>    0.9292    0.9964 </r>
       <r>    0.9503    0.9955 </r>
       <r>    0.9642    0.9948 </r>
       <r>    0.9817    0.9939 </r>
       <r>    0.9921    0.9932 </r>
       <r>    1.0237    0.9907 </r>
       <r>    1.0507    0.9878 </r>
       <r>    1.0823    0.9834 </r>
       <r>    1.1210    0.9757 </r>
       <r>    1.1361    0.9719 </r>
       <r>    1.1617    0.9640 </r>
       <r>    1.1775    0.9580 </r>
       <r>    1.1987    0.9486 </r>
       <r>    1.2073    0.9443 </r>
       <r>    1.2362    0.9270 </r>
       <r>    1.2417    0.9232 </r>
       <r>    1.2721    0.8987 </r>
       <r>    1.2850    0.8862 </r>
       <r>    1.2912    0.8798 </r>
       <r>    1.3117    0.8564 </r>
       <r>    1.3229    0.8421 </r>
       <r>    1.3551    0.7945 </r>
       <r>    1.4306    0.6450 </r>
       <r>    1.5111    0.4483 </r>
       <r>    1.5213    0.4232 </r>
       <r>    1.5613    0.3296 </r>
       <r>    1.5713    0.3080 </r>
       <r>    1.5810    0.2876 </r>
       <r>    1.6106    0.2309 </r>
       <r>    1.8824    0.0194 </r>
       <r>    2.0327    0.0044 </r>
       <r>    2.2341    0.0006 </r>
       <r>    2.3313    0.0002 </r>
       <r>    2.4040    0.0001 </r>
       <r>    2.5423    0.0000 </r>
       <r>    2.6054    0.0000 </r>
       <r>    3.3452    0.0000 </r>
       <r>    4.0828    0.0000 </r>
       <r>    4.4743    0.0000 </r>
       <r>    4.5925    0.0000 </r>
       <r>    4.7811    0.0000 </r>
       <r>    4.9735    0.0000 </r>
       <r>    5.2605    0.0000 </r>
       <r>    5.6867    0.0000 </r>
       <r>    5.8020    0.0000 </r>
       <r>    5.9007    0.0000 </r>
       <r>    6.0955    0.0000 </r>
       <r>    6.2844    0.0000 </r>
       <r>    6.3731    0.0000 </r>
       <r>    6.6603    0.0000 </r>
       <r>    6.7419    0.0000 </r>
       <r>    6.8074    0.0000 </r>
       <r>    7.0774    0.0000 </r>
      </set>
      <set comment="kpoint 4">
       <r>  -12.8244    1.0000 </r>
       <r>   -9.0356    1.0000 </r>
       <r>   -7.5768    1.0000 </r>
       <r>   -6.2981    1.0000 </r>
       <r>   -5.8267    1.0000 </r>
       <r>   -5.6597    1.0000 </r>
       <r>   -5.5021    1.0000 </r>
       <r>   -5.1958    1.0000 </r>
       <r>   -5.1213    1.0000 </r>
       <r>   -5.0700    1.0000 </r>
       <r>   -5.0366    1.0000 </r>
       <r>   -5.0253    1.0000 </r>
       <r>   -4.9958    1.0000 </r>
       <r>   -4.8614    1.0000 </r>
       <r>   -4.7447    1.0000 </r>
       <r>   -4.7061    1.0000 </r>
       <r>   -4.6547    1.0000 </r>
       <r>   -4.5761    1.0000 </r>
       <r>   -4.5295    1.0000 </r>
       <r>   -4.3751    1.0000 </r>
       <r>   -4.3425    1.0000 </r>
       <r>   -4.2512    1.0000 </r>
       <r>   -4.1978    1.0000 </r>
       <r>   -4.1371    1.0000 </r>
       <r>   -4.0921    1.0000 </r>
       <r>   -4.0747    1.0000 </r>
       <r>   -4.0544    1.0000 </r>
       <r>   -4.0204    1.0000 </r>
       <r>   -4.0040    1.0000 </r>
       <r>   -3.9686    1.0000 </r>
       <r>   -3.9320    1.0000 </r>
       <r>   -3.9202    1.0000 </r>
       <r>   -3.8780    1.0000 </r>
       <r>   -3.8566    1.0000 </r>
       <r>   -3.8312    1.0000 </r>
       <r>   -3.7880    1.0000 </r>
       <r>   -3.7499    1.0000 </r>
       <r>   -3.7234    1.0000 </r>
       <r>   -3.6237    1.0000 </r>
       <r>   -3.5612    1.0000 </r>
       <r>   -3.5241    1.0000 </r>
       <r>   -3.4984    1.0000 </r>
       <r>   -3.4702    1.0000 </r>
       <r>   -3.4456    1.0000 </r>
       <r>   -3.3721    1.0000 </r>
       <r>   -3.2465    1.0000 </r>
       <r>   -3.1940    1.0000 </r>
       <r>   -3.1668    1.0000 </r>
       <r>   -3.1353    1.0000 </r>
       <r>   -3.1280    1.0000 </r>
       <r>   -3.0773    1.0000 </r>
       <r>   -3.0071    1.0000 </r>
       <r>   -2.9428    1.0000 </r>
       <r>   -2.8918    1.0000 </r>
       <r>   -2.8552    1.0000 </r>
       <r>   -2.8155    1.0000 </r>
       <r>   -2.7930    1.0000 </r>
       <r>   -2.7578    1.0000 </r>
       <r>   -2.7288    1.0000 </r>
       <r>   -2.6054    1.0000 </r>
       <r>   -2.5579    1.0000 </r>
       <r>   -2.5406    1.0000 </r>
       <r>   -2.3746    1.0000 </r>
       <r>   -2.3490    1.0000 </r>
       <r>   -2.3276    1.0000 </r>
       <r>   -2.2872    1.0000 </r>
       <r>   -2.2672    1.0000 </r>
       <r>   -2.2507    1.0000 </r>
       <r>   -2.2001    1.0000 </r>
       <r>   -2.1943    1.0000 </r>
       <r>   -2.1674    1.0000 </r>
       <r>   -2.1172    1.0000 </r>
       <r>   -2.0852    1.0000 </r>
       <r>   -2.0681    1.0000 </r>
       <r>   -2.0493    1.0000 </r>
       <r>   -2.0291    1.0000 </r>
       <r>   -2.0022    1.0000 </r>
       <r>   -1.9754    1.0000 </r>
       <r>   -1.9338    1.0000 </r>
       <r>   -1.8443    1.0000 </r>
       <r>   -1.8241    1.0000 </r>
       <r>   -1.7952    1.0000 </r>
       <r>   -1.7850    1.0000 </r>
       <r>   -1.7762    1.0000 </r>
       <r>   -1.7525    1.0000 </r>
       <r>   -1.7235    1.0000 </r>
       <r>   -1.7047    1.0000 </r>
       <r>   -1.6825    1.0000 </r>
       <r>   -1.6453    1.0000 </r>
       <r>   -1.6194    1.0000 </r>
       <r>   -1.5988    1.0000 </r>
       <r>   -1.5794    1.0000 </r>
       <r>   -1.5420    1.0000 </r>
       <r>   -1.5263    1.0000 </r>
       <r>   -1.5100    1.0000 </r>
       <r>   -1.5032    1.0000 </r>
       <r>   -1.4722    1.0000 </r>
       <r>   -1.4516    1.0000 </r>
       <r>   -1.4214    1.0000 </r>
       <r>   -1.4137    1.0000 </r>
       <r>   -1.3852    1.0000 </r>
       <r>   -1.3474    1.0000 </r>
       <r>   -1.3288    1.0000 </r>
       <r>   -1.2984    1.0000 </r>
       <r>   -1.2685    1.0000 </r>
       <r>   -1.2459    1.0000 </r>
       <r>   -1.2240    1.0000 </r>
       <r>   -1.2051    1.0000 </r>
       <r>   -1.1793    1.0000 </r>
       <r>   -1.1483    1.0000 </r>
       <r>   -1.1249    1.0000 </r>
       <r>   -1.0858    1.0000 </r>
       <r>   -1.0662    1.0000 </r>
       <r>   -1.0380    1.0000 </r>
       <r>   -0.9917    1.0000 </r>
       <r>   -0.9643    1.0000 </r>
       <r>   -0.9133    1.0000 </r>
       <r>   -0.8747    1.0000 </r>
       <r>   -0.8529    1.0000 </r>
       <r>   -0.7920    1.0000 </r>
       <r>   -0.6990    1.0000 </r>
       <r>   -0.6293    1.0000 </r>
       <r>   -0.6050    1.0000 </r>
       <r>   -0.5838    1.0000 </r>
       <r>   -0.5584    1.0000 </r>
       <r>   -0.5204    1.0000 </r>
       <r>   -0.5132    1.0000 </r>
       <r>   -0.4446    1.0000 </r>
       <r>   -0.3870    1.0000 </r>
       <r>   -0.3501    1.0000 </r>
       <r>   -0.3310    1.0000 </r>
       <r>   -0.2634    1.0000 </r>
       <r>   -0.1485    1.0000 </r>
       <r>   -0.1345    1.0000 </r>
       <r>   -0.1160    1.0000 </r>
       <r>   -0.0868    1.0000 </r>
       <r>   -0.0698    1.0000 </r>
       <r>   -0.0276    1.0000 </r>
       <r>    0.0156    1.0000 </r>
       <r>    0.0216    1.0000 </r>
       <r>    0.0568    1.0000 </r>
       <r>    0.1179    1.0000 </r>
       <r>    0.1659    1.0000 </r>
       <r>    0.2033    1.0000 </r>
       <r>    0.2080    1.0000 </r>
       <r>    0.2460    1.0000 </r>
       <r>    0.2771    1.0000 </r>
       <r>    0.2993    1.0000 </r>
       <r>    0.3066    1.0000 </r>
       <r>    0.3338    1.0000 </r>
       <r>    0.3544    1.0000 </r>
       <r>    0.3708    1.0000 </r>
       <r>    0.4054    1.0000 </r>
       <r>    0.4326    1.0000 </r>
       <r>    0.4724    1.0000 </r>
       <r>    0.4856    1.0000 </r>
       <r>    0.5091    0.9999 </r>
       <r>    0.5396    0.9999 </r>
       <r>    0.5816    0.9999 </r>
       <r>    0.5992    0.9999 </r>
       <r>    0.6273    0.9998 </r>
       <r>    0.6898    0.9997 </r>
       <r>    0.7478    0.9994 </r>
       <r>    0.7849    0.9991 </r>
       <r>    0.8213    0.9988 </r>
       <r>    0.8649    0.9981 </r>
       <r>    0.8903    0.9975 </r>
       <r>    0.9059    0.9971 </r>
       <r>    0.9476    0.9956 </r>
       <r>    0.9612    0.9950 </r>
       <r>    1.0145    0.9915 </r>
       <r>    1.0313    0.9900 </r>
       <r>    1.0707    0.9852 </r>
       <r>    1.1062    0.9790 </r>
       <r>    1.1210    0.9757 </r>
       <r>    1.1587    0.9650 </r>
       <r>    1.1812    0.9565 </r>
       <r>    1.2065    0.9447 </r>
       <r>    1.2200    0.9372 </r>
       <r>    1.2565    0.9120 </r>
       <r>    1.2720    0.8987 </r>
       <r>    1.3008    0.8693 </r>
       <r>    1.3128    0.8551 </r>
       <r>    1.3447    0.8109 </r>
       <r>    1.3699    0.7693 </r>
       <r>    1.3852    0.7411 </r>
       <r>    1.4259    0.6557 </r>
       <r>    1.4417    0.6191 </r>
       <r>    1.4662    0.5601 </r>
       <r>    1.4880    0.5057 </r>
       <r>    1.5055    0.4622 </r>
       <r>    1.5423    0.3729 </r>
       <r>    1.5571    0.3390 </r>
       <r>    1.6144    0.2243 </r>
       <r>    1.6456    0.1747 </r>
       <r>    1.6674    0.1455 </r>
       <r>    1.7131    0.0973 </r>
       <r>    1.7635    0.0611 </r>
       <r>    1.7947    0.0455 </r>
       <r>    1.8462    0.0277 </r>
       <r>    1.9894    0.0068 </r>
       <r>    2.0075    0.0056 </r>
       <r>    2.0618    0.0033 </r>
       <r>    2.3325    0.0002 </r>
       <r>    2.5054    0.0000 </r>
       <r>    2.9255    0.0000 </r>
       <r>    3.0693    0.0000 </r>
       <r>    3.1577    0.0000 </r>
       <r>    3.3693    0.0000 </r>
       <r>    3.9521    0.0000 </r>
       <r>    4.1912    0.0000 </r>
[...]
     <dimension dim="2">spin</dimension>
     <field>energy</field>
     <field>total</field>
     <field>integrated</field>
     <set>
      <set comment="spin 1">
       <r>   -13.8403     0.0000     0.0000 </r>
       <r>   -13.7658     0.0000     0.0000 </r>
       <r>   -13.6913     0.0046     0.0003 </r>
       <r>   -13.6168     0.0051     0.0007 </r>
       <r>   -13.5423     0.0107     0.0015 </r>
       <r>   -13.4679     0.0225     0.0032 </r>
       <r>   -13.3934     0.0473     0.0067 </r>
       <r>   -13.3189     0.0991     0.0141 </r>
       <r>   -13.2444     0.2064     0.0295 </r>
       <r>   -13.1700     0.4243     0.0611 </r>
       <r>   -13.0955     0.8506     0.1244 </r>
       <r>   -13.0210     1.6212     0.2452 </r>
       <r>   -12.9465     2.8130     0.4547 </r>
       <r>   -12.8720     4.1687     0.7651 </r>
       <r>   -12.7976     4.9295     1.1323 </r>
       <r>   -12.7231     4.4860     1.4664 </r>
       <r>   -12.6486     3.2082     1.7053 </r>
       <r>   -12.5741     1.9202     1.8483 </r>
       <r>   -12.4997     1.0292     1.9250 </r>
       <r>   -12.4252     0.5192     1.9637 </r>
       <r>   -12.3507     0.2539     1.9826 </r>
       <r>   -12.2762     0.1223     1.9917 </r>
       <r>   -12.2018     0.0585     1.9960 </r>
       <r>   -12.1273     0.0279     1.9981 </r>
       <r>   -12.0528     0.0132     1.9991 </r>
       <r>   -11.9783     0.0000     2.0000 </r>
       <r>   -11.9038     0.0000     2.0000 </r>
       <r>   -11.8294     0.0000     2.0000 </r>
       <r>   -11.7549     0.0000     2.0000 </r>
       <r>   -11.6804     0.0000     2.0000 </r>
       <r>   -11.6059     0.0000     2.0000 </r>
       <r>   -11.5315     0.0000     2.0000 </r>
       <r>   -11.4570     0.0000     2.0000 </r>
       <r>   -11.3825     0.0000     2.0000 </r>
       <r>   -11.3080     0.0000     2.0000 </r>
       <r>   -11.2335     0.0000     2.0000 </r>
       <r>   -11.1591     0.0000     2.0000 </r>
       <r>   -11.0846     0.0000     2.0000 </r>
       <r>   -11.0101     0.0000     2.0000 </r>
       <r>   -10.9356     0.0000     2.0000 </r>
       <r>   -10.8612     0.0000     2.0000 </r>
       <r>   -10.7867     0.0000     2.0000 </r>
       <r>   -10.7122     0.0000     2.0000 </r>
       <r>   -10.6377     0.0000     2.0000 </r>
       <r>   -10.5632     0.0000     2.0000 </r>
       <r>   -10.4888     0.0000     2.0000 </r>
       <r>   -10.4143     0.0000     2.0000 </r>
       <r>   -10.3398     0.0000     2.0000 </r>
       <r>   -10.2653     0.0000     2.0000 </r>
       <r>   -10.1909     0.0000     2.0000 </r>
       <r>   -10.1164     0.0000     2.0000 </r>
       <r>   -10.0419     0.0000     2.0000 </r>
       <r>    -9.9674     0.0000     2.0000 </r>
       <r>    -9.8929     0.0049     2.0004 </r>
       <r>    -9.8185     0.0054     2.0008 </r>
       <r>    -9.7440     0.0114     2.0016 </r>
       <r>    -9.6695     0.0240     2.0034 </r>
       <r>    -9.5950     0.0504     2.0072 </r>
       <r>    -9.5206     0.1055     2.0150 </r>
       <r>    -9.4461     0.2195     2.0314 </r>
       <r>    -9.3716     0.4506     2.0649 </r>
       <r>    -9.2971     0.9005     2.1320 </r>
       <r>    -9.2227     1.7059     2.2590 </r>
       <r>    -9.1482     2.9283     2.4771 </r>
       <r>    -9.0737     4.2675     2.7950 </r>
       <r>    -8.9992     4.9393     3.1628 </r>
       <r>    -8.9247     4.3982     3.4904 </r>
       <r>    -8.8503     3.0910     3.7206 </r>
       <r>    -8.7758     1.8289     3.8568 </r>
       <r>    -8.7013     0.9739     3.9294 </r>
       <r>    -8.6268     0.4896     3.9658 </r>
       <r>    -8.5524     0.2397     3.9837 </r>
       <r>    -8.4779     0.1157     3.9923 </r>
       <r>    -8.4034     0.0572     3.9966 </r>
       <r>    -8.3289     0.0307     3.9988 </r>
       <r>    -8.2544     0.0221     4.0005 </r>
       <r>    -8.1800     0.0195     4.0028 </r>
       <r>    -8.1055     0.0414     4.0059 </r>
       <r>    -8.0310     0.0854     4.0122 </r>
       <r>    -7.9565     0.1710     4.0250 </r>
       <r>    -7.8821     0.3272     4.0493 </r>
       <r>    -7.8076     0.5806     4.0926 </r>
       <r>    -7.7331     0.9188     4.1610 </r>
       <r>    -7.6586     1.2804     4.2564 </r>
       <r>    -7.5841     1.5832     4.3743 </r>
       <r>    -7.5097     1.7816     4.5070 </r>
       <r>    -7.4352     1.8879     4.6476 </r>
       <r>    -7.3607     1.9617     4.7937 </r>
       <r>    -7.2862     2.0497     4.9463 </r>
       <r>    -7.2118     2.1164     5.1040 </r>
       <r>    -7.1373     2.1158     5.2615 </r>
       <r>    -7.0628     2.0820     5.4166 </r>
       <r>    -6.9883     2.0873     5.5721 </r>
       <r>    -6.9139     2.1632     5.7332 </r>
       <r>    -6.8394     2.2971     5.9044 </r>
       <r>    -6.7649     2.4141     6.0843 </r>
       <r>    -6.6904     2.4839     6.2694 </r>
       <r>    -6.6159     2.5699     6.4609 </r>
       <r>    -6.5415     2.7712     6.6673 </r>
       <r>    -6.4670     3.1413     6.9014 </r>
       <r>    -6.3925     3.6752     7.1752 </r>
       <r>    -6.3180     4.2368     7.4908 </r>
       <r>    -6.2436     4.6351     7.8361 </r>
       <r>    -6.1691     4.8209     8.1953 </r>
       <r>    -6.0946     4.9292     8.5624 </r>
       <r>    -6.0201     5.0943     8.9419 </r>
       <r>    -5.9456     5.3318     9.3391 </r>
       <r>    -5.8712     5.6976     9.7635 </r>
       <r>    -5.7967     6.3237    10.2345 </r>
       <r>    -5.7222     7.2197    10.7723 </r>
       <r>    -5.6477     8.2339    11.3856 </r>
       <r>    -5.5733     9.2240    12.0728 </r>
       <r>    -5.4988    10.0394    12.8207 </r>
       <r>    -5.4243    10.5622    13.6076 </r>
       <r>    -5.3498    11.0896    14.4337 </r>
       <r>    -5.2753    12.2412    15.3455 </r>
       <r>    -5.2009    14.3060    16.4111 </r>
       <r>    -5.1264    16.9726    17.6754 </r>
       <r>    -5.0519    19.7077    19.1433 </r>
       <r>    -4.9774    22.1914    20.7963 </r>
       <r>    -4.9030    24.5315    22.6237 </r>
       <r>    -4.8285    27.0308    24.6371 </r>
       <r>    -4.7540    29.6289    26.8442 </r>
       <r>    -4.6795    31.8629    29.2178 </r>
       <r>    -4.6050    33.4685    31.7109 </r>
       <r>    -4.5306    34.9261    34.3123 </r>
       <r>    -4.4561    37.0714    37.0736 </r>
       <r>    -4.3816    40.0502    40.0569 </r>
       <r>    -4.3071    43.2465    43.2786 </r>
       <r>    -4.2327    46.2263    46.7223 </r>
       <r>    -4.1582    48.9082    50.3658 </r>
       <r>    -4.0837    50.9574    54.1616 </r>
       <r>    -4.0092    51.8942    58.0275 </r>
       <r>    -3.9348    51.7519    61.8830 </r>
       <r>    -3.8603    50.9845    65.6816 </r>
       <r>    -3.7858    49.8600    69.3965 </r>
       <r>    -3.7113    48.1388    72.9828 </r>
       <r>    -3.6368    45.5888    76.3793 </r>
       <r>    -3.5624    42.5263    79.5483 </r>
       <r>    -3.4879    39.6104    82.5001 </r>
       <r>    -3.4134    37.5735    85.3001 </r>
       <r>    -3.3389    37.2858    88.0788 </r>
       <r>    -3.2645    39.2378    91.0033 </r>
       <r>    -3.1900    42.6462    94.1818 </r>
       <r>    -3.1155    45.7665    97.5921 </r>
       <r>    -3.0410    47.4832   101.1304 </r>
       <r>    -2.9665    48.2242   104.7238 </r>
       <r>    -2.8921    48.9454   108.3711 </r>
       <r>    -2.8176    49.6956   112.0741 </r>
       <r>    -2.7431    49.7943   115.7842 </r>
       <r>    -2.6686    48.9082   119.4283 </r>
       <r>    -2.5942    47.4371   122.9625 </r>
       <r>    -2.5197    46.1674   126.4017 </r>
       <r>    -2.4452    46.1904   129.8432 </r>
       <r>    -2.3707    48.3143   133.4433 </r>
       <r>    -2.2962    52.1110   137.3268 </r>
       <r>    -2.2218    56.5061   141.5368 </r>
       <r>    -2.1473    60.7203   146.0607 </r>
       <r>    -2.0728    64.2539   150.8479 </r>
       <r>    -1.9983    66.7365   155.8203 </r>
       <r>    -1.9239    68.5488   160.9276 </r>
       <r>    -1.8494    70.5661   166.1847 </r>
       <r>    -1.7749    72.9863   171.6226 </r>
       <r>    -1.7004    75.1601   177.2216 </r>
       <r>    -1.6260    76.5374   182.9230 </r>
       <r>    -1.5515    77.2576   188.6787 </r>
       <r>    -1.4770    77.6034   194.4607 </r>
       <r>    -1.4025    77.5391   200.2375 </r>
       <r>    -1.3280    76.5172   205.9386 </r>
       <r>    -1.2536    73.7431   211.4337 </r>
       <r>    -1.1791    69.0091   216.5760 </r>
       <r>    -1.1046    63.0674   221.2753 </r>
       <r>    -1.0301    57.2075   225.5384 </r>
       <r>    -0.9557    52.5242   229.4531 </r>
       <r>    -0.8812    49.6594   233.1552 </r>
       <r>    -0.8067    49.0063   236.8073 </r>
       <r>    -0.7322    50.7184   240.5879 </r>
       <r>    -0.6577    54.3203   244.6361 </r>
       <r>    -0.5833    58.1431   248.9698 </r>
       <r>    -0.5088    60.0384   253.4444 </r>
       <r>    -0.4343    59.0672   257.8465 </r>
       <r>    -0.3598    56.3229   262.0441 </r>
       <r>    -0.2854    53.6221   266.0397 </r>
       <r>    -0.2109    52.0300   269.9168 </r>
       <r>    -0.1364    51.7054   273.7690 </r>
       <r>    -0.0619    52.3467   277.6696 </r>
       <r>     0.0126    53.6760   281.6686 </r>
       <r>     0.0870    55.6463   285.8146 </r>
       <r>     0.1615    58.2491   290.1547 </r>
       <r>     0.2360    61.1091   294.7088 </r>
       <r>     0.3105    63.5012   299.4413 </r>
       <r>     0.3849    64.5713   304.2523 </r>
       <r>     0.4594    63.6916   308.9978 </r>
       <r>     0.5339    61.0254   313.5446 </r>
       <r>     0.6084    57.6056   317.8368 </r>
       <r>     0.6829    54.8028   321.9202 </r>
       <r>     0.7573    53.5507   325.9104 </r>
       <r>     0.8318    53.7585   329.9162 </r>
       <r>     0.9063    54.6588   333.9888 </r>
       <r>     0.9808    55.8351   338.1498 </r>
       <r>     1.0552    57.8111   342.4576 </r>
       <r>     1.1297    61.2127   347.0190 </r>
       <r>     1.2042    65.6272   351.9096 </r>
       <r>     1.2787    69.6179   357.0971 </r>
       <r>     1.3531    71.7030   362.4399 </r>
       <r>     1.4276    71.0779   367.7352 </r>
       <r>     1.5021    67.6311   372.7737 </r>
       <r>     1.5766    61.9513   377.3897 </r>
       <r>     1.6511    55.1656   381.5002 </r>
       <r>     1.7255    48.0391   385.0803 </r>
       <r>     1.8000    40.5627   388.1032 </r>
       <r>     1.8745    33.0463   390.5663 </r>
       <r>     1.9490    26.5718   392.5472 </r>
       <r>     2.0234    21.8010   394.1738 </r>
       <r>     2.0979    18.4972   395.5542 </r>
       <r>     2.1724    16.1748   396.7620 </r>
       <r>     2.2469    14.5452   397.8484 </r>
       <r>     2.3214    13.4207   398.8508 </r>
       <r>     2.3958    12.7232   399.8005 </r>
       <r>     2.4703    12.4006   400.7256 </r>
       <r>     2.5448    12.2474   401.6398 </r>
       <r>     2.6193    12.0149   402.5362 </r>
       <r>     2.6937    11.6228   403.4027 </r>
       <r>     2.7682    11.2822   404.2434 </r>
       <r>     2.8427    11.2702   405.0835 </r>
       <r>     2.9172    11.5641   405.9453 </r>
       <r>     2.9917    11.9059   406.8325 </r>
       <r>     3.0661    12.1748   407.7399 </r>
       <r>     3.1406    12.4329   408.6662 </r>
       <r>     3.2151    12.7144   409.6135 </r>
       <r>     3.2896    12.9545   410.5788 </r>
       <r>     3.3640    12.9579   411.5443 </r>
       <r>     3.4385    12.5013   412.4760 </r>
       <r>     3.5130    11.6941   413.3472 </r>
       <r>     3.5875    10.9123   414.1603 </r>
       <r>     3.6620    10.5106   414.9435 </r>
       <r>     3.7364    10.6800   415.7393 </r>
       <r>     3.8109    11.3708   416.5867 </r>
       <r>     3.8854    12.1834   417.4945 </r>
       <r>     3.9599    12.5277   418.4281 </r>
       <r>     4.0343    12.1887   419.3362 </r>
       <r>     4.1088    11.5632   420.1979 </r>
       <r>     4.1833    11.2465   421.0362 </r>
       <r>     4.2578    11.4475   421.8892 </r>
       <r>     4.3322    11.8199   422.7701 </r>
       <r>     4.4067    11.9103   423.6574 </r>
       <r>     4.4812    11.6266   424.5237 </r>
       <r>     4.5557    11.2793   425.3640 </r>
       <r>     4.6302    11.1646   426.1958 </r>
       <r>     4.7046    11.3261   427.0401 </r>
       <r>     4.7791    11.5935   427.9041 </r>
       <r>     4.8536    11.6934   428.7755 </r>
       <r>     4.9281    11.4600   429.6292 </r>
       <r>     5.0025    10.9491   430.4451 </r>
       <r>     5.0770    10.3824   431.2187 </r>
       <r>     5.1515     9.9876   431.9631 </r>
       <r>     5.2260     9.8615   432.6981 </r>
       <r>     5.3005     9.8827   433.4346 </r>
       <r>     5.3749     9.9891   434.1789 </r>
       <r>     5.4494    10.2792   434.9448 </r>
       <r>     5.5239    10.7482   435.7457 </r>
       <r>     5.5984    11.2339   436.5828 </r>
       <r>     5.6728    11.5865   437.4463 </r>
       <r>     5.7473    11.7450   438.3215 </r>
       <r>     5.8218    11.6451   439.1892 </r>
       <r>     5.8963    11.2559   440.0279 </r>
       <r>     5.9708    10.7144   440.8261 </r>
       <r>     6.0452    10.1976   441.5862 </r>
       <r>     6.1197     9.7904   442.3156 </r>
       <r>     6.1942     9.5172   443.0247 </r>
       <r>     6.2687     9.4001   443.7252 </r>
       <r>     6.3431     9.3927   444.4251 </r>
       <r>     6.4176     9.3105   445.1190 </r>
       <r>     6.4921     8.9957   445.7894 </r>
       <r>     6.5666     8.5160   446.4241 </r>
       <r>     6.6410     8.0329   447.0229 </r>
       <r>     6.7155     7.6054   447.5898 </r>
       <r>     6.7900     7.1525   448.1228 </r>
       <r>     6.8645     6.4935   448.6067 </r>
       <r>     6.9390     5.5048   449.0172 </r>
       <r>     7.0134     4.2606   449.3348 </r>
       <r>     7.0879     2.9964   449.5582 </r>
       <r>     7.1624     1.9465   449.7035 </r>
       <r>     7.2369     1.2111   449.7943 </r>
       <r>     7.3113     0.7704   449.8519 </r>
       <r>     7.3858     0.5440   449.8927 </r>
       <r>     7.4603     0.4390   449.9258 </r>
       <r>     7.5348     0.3639   449.9530 </r>
       <r>     7.6093     0.2667   449.9733 </r>
       <r>     7.6837     0.1669   449.9860 </r>
       <r>     7.7582     0.0916   449.9931 </r>
       <r>     7.8327     0.0467   449.9967 </r>
       <r>     7.9072     0.0229   449.9984 </r>
       <r>     7.9816     0.0110   449.9992 </r>
       <r>     8.0561     0.0051   449.9997 </r>
       <r>     8.1306     0.0024   449.9998 </r>
       <r>     8.2051     0.0012   449.9999 </r>
       <r>     8.2796     0.0002   450.0000 </r>
       <r>     8.3540     0.0000   450.0000 </r>
       <r>     8.4285     0.0000   450.0000 </r>
       <r>     8.5030     0.0000   450.0000 </r>
      </set>
     </set>
    </array>
   </total>
  </dos>
 </calculation>
 <structure name="finalpos" >
  <crystal>
   <varray name="basis" >
    <v>       8.42164176       0.00000000       0.00000000 </v>
    <v>       4.21082088       7.29335571       0.00000000 </v>
    <v>       0.00000000       0.00000000      21.87624171 </v>
   </varray>
   <i name="volume">   1343.68315334 </i>
   <varray name="rec_basis" >
    <v>       0.11874169      -0.06855555       0.00000000 </v>
    <v>       0.00000000       0.13711110       0.00000000 </v>
    <v>       0.00000000       0.00000000       0.04571169 </v>
   </varray>
  </crystal>
  <varray name="positions" >
   <v>       0.00000000       0.00000000       0.34283768 </v>
   <v>       0.33333333       0.00000000       0.34283768 </v>
   <v>       0.66666667       0.00000000       0.34283768 </v>
   <v>       0.00000000       0.33333333       0.34283768 </v>
   <v>       0.33333333       0.33333333       0.34283768 </v>
   <v>       0.66666667       0.33333333       0.34283768 </v>
   <v>       0.00000000       0.66666667       0.34283768 </v>
   <v>       0.33333333       0.66666667       0.34283768 </v>
   <v>       0.66666667       0.66666667       0.34283768 </v>
   <v>       0.11111111       0.11111111       0.44761256 </v>
   <v>       0.44444444       0.11111111       0.44761256 </v>
   <v>       0.77777778       0.11111111       0.44761256 </v>
   <v>       0.11111111       0.44444444       0.44761256 </v>
   <v>       0.44444444       0.44444444       0.44761256 </v>
   <v>       0.77777778       0.44444444       0.44761256 </v>
   <v>       0.11111111       0.77777778       0.44761256 </v>
   <v>       0.44444444       0.77777778       0.44761256 </v>
   <v>       0.77777778       0.77777778       0.44761256 </v>
   <v>       0.89081184       0.22183169       0.55074309 </v>
   <v>       0.22410134       0.22340812       0.55188838 </v>
   <v>       0.55600762       0.22179499       0.55264501 </v>
   <v>       0.89011955       0.55610029       0.55134985 </v>
   <v>       0.22419268       0.55185140       0.55324374 </v>
   <v>       0.55583878       0.55688323       0.55075797 </v>
   <v>       0.88598494       0.89004293       0.55329412 </v>
   <v>       0.22158868       0.88756281       0.54985190 </v>
   <v>       0.55739148       0.89012140       0.55187006 </v>
   <v>       0.00188142       0.99973661       0.65623790 </v>
   <v>       0.33034401       0.99545032       0.65373816 </v>
   <v>       0.66639200       0.00463833       0.66519689 </v>
   <v>       0.00370872       0.33474723       0.65634965 </v>
   <v>       0.34032806       0.33132308       0.66518066 </v>
   <v>       0.67406012       0.33843552       0.65461862 </v>
   <v>       0.00265217       0.66705452       0.65732156 </v>
   <v>       0.33520924       0.66654733       0.65619223 </v>
   <v>       0.66970527       0.66876595       0.65639440 </v>
   <v>       0.49594417       0.16033706       0.73540382 </v>
   <v>       0.56876907       0.23103239       0.78476605 </v>
   <v>       0.42543641       0.09170351       0.75529954 </v>
   <v>       0.45438242       0.33076682       0.81346941 </v>
   <v>       0.64352780       0.29815134       0.76732478 </v>
   <v>       0.66262242       0.11640263       0.81460462 </v>
  </varray>
  <varray name="selective"  type="logical" >
   <v type="logical" >  F  F  F </v>
   <v type="logical" >  F  F  F </v>
   <v type="logical" >  F  F  F </v>
   <v type="logical" >  F  F  F </v>
   <v type="logical" >  F  F  F </v>
   <v type="logical" >  F  F  F </v>
   <v type="logical" >  F  F  F </v>
   <v type="logical" >  F  F  F </v>
   <v type="logical" >  F  F  F </v>
   <v type="logical" >  F  F  F </v>
   <v type="logical" >  F  F  F </v>
   <v type="logical" >  F  F  F </v>
   <v type="logical" >  F  F  F </v>
   <v type="logical" >  F  F  F </v>
   <v type="logical" >  F  F  F </v>
   <v type="logical" >  F  F  F </v>
   <v type="logical" >  F  F  F </v>
   <v type="logical" >  F  F  F </v>
   <v type="logical" >  T  T  T </v>
   <v type="logical" >  T  T  T </v>
   <v type="logical" >  T  T  T </v>
   <v type="logical" >  T  T  T </v>
   <v type="logical" >  T  T  T </v>
   <v type="logical" >  T  T  T </v>
   <v type="logical" >  T  T  T </v>
   <v type="logical" >  T  T  T </v>
   <v type="logical" >  T  T  T </v>
   <v type="logical" >  T  T  T </v>
   <v type="logical" >  T  T  T </v>
   <v type="logical" >  T  T  T </v>
   <v type="logical" >  T  T  T </v>
   <v type="logical" >  T  T  T </v>
   <v type="logical" >  T  T  T </v>
   <v type="logical" >  T  T  T </v>
   <v type="logical" >  T  T  T </v>
   <v type="logical" >  T  T  T </v>
   <v type="logical" >  T  T  T </v>
   <v type="logical" >  T  T  T </v>
   <v type="logical" >  T  T  T </v>
   <v type="logical" >  T  T  T </v>
   <v type="logical" >  T  T  T </v>
   <v type="logical" >  T  T  T </v>
  </varray>
  <nose>
   <v>      -3.00000000       0.00000000       0.00010000       0.00010000 </v>
  </nose>
 </structure>
</modeling>
