 running on   20 total cores
 distrk:  each k-point on   20 cores,    1 groups
 distr:  one band on    4 cores,    5 groups
 using from now: INCAR     
 vasp.5.4.1 24Jun15 (build Oct 10 2016 12:42:00) complex                        
  
 POSCAR found :  3 types and      42 ions
 scaLAPACK will be used
 LDA part: xc-table for Pade appr. of Perdew
 POSCAR found :  3 types and      42 ions
 POSCAR, INCAR and KPOINTS ok, starting setup
 WARNING: small aliasing (wrap around) errors must be expected
 FFT: planning ...
 WAVECAR not read
 entering main loop
       N       E                     dE             d eps       ncg     rms          rms(c)
DAV:   1     0.219762342389E+04    0.21976E+04   -0.14738E+05 24330   0.117E+03
DAV:   2    -0.933825582913E+02   -0.22910E+04   -0.21215E+04 28340   0.269E+02
DAV:   3    -0.254061719523E+03   -0.16068E+03   -0.14580E+03 29710   0.645E+01
DAV:   4    -0.260881265921E+03   -0.68195E+01   -0.66124E+01 30980   0.128E+01    0.630E+01
RMM:   5    -0.248339197236E+03    0.12542E+02   -0.54593E+01 25902   0.146E+01    0.436E+01
RMM:   6    -0.286732960823E+03   -0.38394E+02   -0.73446E+01 25655   0.132E+01    0.555E+01
RMM:   7    -0.243830195134E+03    0.42903E+02   -0.26472E+01 25156   0.870E+00    0.113E+01
RMM:   8    -0.245713767632E+03   -0.18836E+01   -0.13720E+01 25332   0.593E+00    0.182E+01
RMM:   9    -0.248144422549E+03   -0.24307E+01   -0.33517E+00 26090   0.288E+00    0.230E+01
RMM:  10    -0.242437883206E+03    0.57065E+01   -0.11799E+00 25796   0.170E+00    0.482E+00
RMM:  11    -0.242252624394E+03    0.18526E+00   -0.41376E-01 25905   0.103E+00    0.330E+00
RMM:  12    -0.242248980860E+03    0.36435E-02   -0.10566E-01 26919   0.494E-01    0.317E+00
RMM:  13    -0.242220159033E+03    0.28822E-01   -0.59837E-02 25764   0.403E-01    0.225E+00
RMM:  14    -0.242197294896E+03    0.22864E-01   -0.49503E-02 25743   0.371E-01    0.118E+00
RMM:  15    -0.242185845443E+03    0.11449E-01   -0.14644E-02 25805   0.201E-01    0.709E-01
RMM:  16    -0.242181707676E+03    0.41378E-02   -0.26712E-03 26056   0.799E-02    0.325E-01
RMM:  17    -0.242181097729E+03    0.60995E-03   -0.15198E-03 25962   0.601E-02    0.258E-01
RMM:  18    -0.242180610361E+03    0.48737E-03   -0.90007E-04 25750   0.481E-02    0.198E-01
RMM:  19    -0.242180390529E+03    0.21983E-03   -0.37435E-04 25919   0.304E-02    0.145E-01
RMM:  20    -0.242180347345E+03    0.43184E-04   -0.89083E-04 25517   0.410E-02    0.997E-02
RMM:  21    -0.242180467550E+03   -0.12021E-03   -0.20587E-04 26790   0.201E-02    0.962E-02
RMM:  22    -0.242180745183E+03   -0.27763E-03   -0.14584E-04 25485   0.177E-02    0.823E-02
RMM:  23    -0.242180911137E+03   -0.16595E-03   -0.69454E-05 25922   0.132E-02    0.520E-02
RMM:  24    -0.242181300703E+03   -0.38957E-03   -0.68313E-05 25363   0.128E-02    0.278E-02
RMM:  25    -0.242181533159E+03   -0.23246E-03   -0.26286E-05 25724   0.751E-03    0.129E-02
RMM:  26    -0.242181854561E+03   -0.32140E-03   -0.18720E-05 25093   0.557E-03    0.169E-02
RMM:  27    -0.242182065448E+03   -0.21089E-03   -0.12880E-05 22579   0.444E-03    0.137E-02
RMM:  28    -0.242182185837E+03   -0.12039E-03   -0.48482E-06 18924   0.271E-03    0.975E-03
RMM:  29    -0.242182332710E+03   -0.14687E-03   -0.46202E-06 18138   0.261E-03    0.478E-03
RMM:  30    -0.242182435741E+03   -0.10303E-03   -0.34622E-06 17312   0.224E-03    0.379E-03
RMM:  31    -0.242182504842E+03   -0.69101E-04   -0.25504E-06 16375   0.185E-03    0.219E-03
RMM:  32    -0.242182524622E+03   -0.19779E-04   -0.80958E-07 14585   0.106E-03    0.188E-03
RMM:  33    -0.242182546562E+03   -0.21940E-04   -0.11385E-06 14896   0.117E-03    0.114E-03
RMM:  34    -0.242182551569E+03   -0.50074E-05   -0.33978E-07  9991   0.683E-04    0.829E-04
RMM:  35    -0.242182555554E+03   -0.39846E-05   -0.25149E-07 10157   0.651E-04    0.567E-04
RMM:  36    -0.242182557666E+03   -0.21126E-05   -0.15766E-07  9338   0.553E-04    0.307E-04
RMM:  37    -0.242182559536E+03   -0.18702E-05   -0.15272E-07  8620   0.538E-04    0.301E-04
RMM:  38    -0.242182560077E+03   -0.54039E-06   -0.52652E-08  5608   0.444E-04
   1 F= -.24218256E+03 E0= -.24112828E+03  d E =-.210856E+01
