<?xml version="1.0" encoding="ISO-8859-1"?>
<modeling>
 <generator>
  <i name="program" type="string">vasp </i>
  <i name="version" type="string">5.4.1  </i>
  <i name="subversion" type="string">24Jun15 (build Oct 10 2016 12:42:00) complex                          parallel </i>
  <i name="platform" type="string">IFC91_ompi </i>
  <i name="date" type="string">2018 06 07 </i>
  <i name="time" type="string">21:00:32 </i>
 </generator>
 <incar>
  <i type="string" name="PREC">normal</i>
  <i type="string" name="ALGO"> fast</i>
  <i type="int" name="ISPIN">     1</i>
  <i type="int" name="NELMDL">    -4</i>
  <i type="int" name="NELMIN">     4</i>
  <i name="EDIFF">      0.00000100</i>
  <i name="ENCUT">    400.00000000</i>
  <i type="string" name="LREAL"> auto</i>
  <i type="int" name="ISMEAR">    -1</i>
  <i name="SIGMA">      0.10000000</i>
  <i type="logical" name="LWAVE"> F  </i>
  <i type="logical" name="LCHARG"> F  </i>
  <v type="int" name="KPOINT_BSE">    -1     0     0     0</v>
  <i type="string" name="GGA"> PE</i>
 </incar>
 <kpoints>
  <generation param="Monkhorst-Pack">
   <v type="int" name="divisions">       6        6        1 </v>
   <v name="usershift">      0.00000000       0.00000000       0.00000000 </v>
   <v name="genvec1">      0.16666667      -0.00000000       0.00000000 </v>
   <v name="genvec2">      0.00000000       0.16666667       0.00000000 </v>
   <v name="genvec3">      0.00000000       0.00000000       1.00000000 </v>
   <v name="shift">      0.50000000       0.50000000       0.00000000 </v>
  </generation>
  <varray name="kpointlist" >
   <v>       0.08333333       0.08333333       0.00000000 </v>
   <v>       0.00000000       0.08333333       0.00000000 </v>
   <v>      -0.08333333       0.00000000       0.00000000 </v>
   <v>       0.25000000       0.08333333       0.00000000 </v>
   <v>       0.16666667       0.25000000       0.00000000 </v>
   <v>      -0.08333333       0.16666667       0.00000000 </v>
   <v>       0.16666667      -0.08333333       0.00000000 </v>
   <v>      -0.08333333      -0.25000000       0.00000000 </v>
   <v>      -0.25000000      -0.16666667       0.00000000 </v>
   <v>       0.41666667       0.08333333       0.00000000 </v>
   <v>       0.33333333       0.41666667       0.00000000 </v>
   <v>      -0.08333333       0.33333333       0.00000000 </v>
   <v>       0.33333333      -0.08333333       0.00000000 </v>
   <v>      -0.08333333      -0.41666667       0.00000000 </v>
   <v>      -0.41666667      -0.33333333       0.00000000 </v>
   <v>      -0.41666667       0.08333333       0.00000000 </v>
   <v>       0.50000000      -0.41666667       0.00000000 </v>
   <v>      -0.08333333       0.50000000       0.00000000 </v>
   <v>       0.50000000      -0.08333333       0.00000000 </v>
   <v>      -0.08333333       0.41666667       0.00000000 </v>
   <v>       0.41666667       0.50000000       0.00000000 </v>
   <v>      -0.25000000       0.08333333       0.00000000 </v>
   <v>      -0.33333333      -0.25000000       0.00000000 </v>
   <v>      -0.08333333      -0.33333333       0.00000000 </v>
   <v>      -0.33333333      -0.08333333       0.00000000 </v>
   <v>      -0.08333333       0.25000000       0.00000000 </v>
   <v>       0.25000000       0.33333333       0.00000000 </v>
   <v>      -0.08333333       0.08333333       0.00000000 </v>
   <v>      -0.16666667      -0.08333333       0.00000000 </v>
   <v>      -0.08333333      -0.16666667       0.00000000 </v>
   <v>       0.25000000       0.25000000       0.00000000 </v>
   <v>       0.00000000       0.25000000       0.00000000 </v>
   <v>      -0.25000000       0.00000000       0.00000000 </v>
   <v>       0.41666667       0.25000000       0.00000000 </v>
   <v>       0.16666667       0.41666667       0.00000000 </v>
   <v>      -0.25000000       0.16666667       0.00000000 </v>
   <v>       0.16666667      -0.25000000       0.00000000 </v>
   <v>      -0.25000000      -0.41666667       0.00000000 </v>
   <v>      -0.41666667      -0.16666667       0.00000000 </v>
   <v>      -0.41666667       0.25000000       0.00000000 </v>
   <v>       0.33333333      -0.41666667       0.00000000 </v>
   <v>      -0.25000000       0.33333333       0.00000000 </v>
   <v>       0.33333333      -0.25000000       0.00000000 </v>
   <v>      -0.25000000       0.41666667       0.00000000 </v>
   <v>       0.41666667      -0.33333333       0.00000000 </v>
   <v>      -0.25000000       0.25000000       0.00000000 </v>
   <v>       0.50000000      -0.25000000       0.00000000 </v>
   <v>      -0.25000000       0.50000000       0.00000000 </v>
   <v>       0.41666667       0.41666667       0.00000000 </v>
   <v>       0.00000000       0.41666667       0.00000000 </v>
   <v>      -0.41666667      -0.00000000       0.00000000 </v>
   <v>      -0.41666667       0.41666667       0.00000000 </v>
   <v>       0.16666667      -0.41666667       0.00000000 </v>
   <v>      -0.41666667       0.16666667       0.00000000 </v>
  </varray>
  <varray name="weights" >
   <v>       0.01851852 </v>
   <v>       0.01851852 </v>
   <v>       0.01851852 </v>
   <v>       0.01851852 </v>
   <v>       0.01851852 </v>
   <v>       0.01851852 </v>
   <v>       0.01851852 </v>
   <v>       0.01851852 </v>
   <v>       0.01851852 </v>
   <v>       0.01851852 </v>
   <v>       0.01851852 </v>
   <v>       0.01851852 </v>
   <v>       0.01851852 </v>
   <v>       0.01851852 </v>
   <v>       0.01851852 </v>
   <v>       0.01851852 </v>
   <v>       0.01851852 </v>
   <v>       0.01851852 </v>
   <v>       0.01851852 </v>
   <v>       0.01851852 </v>
   <v>       0.01851852 </v>
   <v>       0.01851852 </v>
   <v>       0.01851852 </v>
   <v>       0.01851852 </v>
   <v>       0.01851852 </v>
   <v>       0.01851852 </v>
   <v>       0.01851852 </v>
   <v>       0.01851852 </v>
   <v>       0.01851852 </v>
   <v>       0.01851852 </v>
   <v>       0.01851852 </v>
   <v>       0.01851852 </v>
   <v>       0.01851852 </v>
   <v>       0.01851852 </v>
   <v>       0.01851852 </v>
   <v>       0.01851852 </v>
   <v>       0.01851852 </v>
   <v>       0.01851852 </v>
   <v>       0.01851852 </v>
   <v>       0.01851852 </v>
   <v>       0.01851852 </v>
   <v>       0.01851852 </v>
   <v>       0.01851852 </v>
   <v>       0.01851852 </v>
   <v>       0.01851852 </v>
   <v>       0.01851852 </v>
   <v>       0.01851852 </v>
   <v>       0.01851852 </v>
   <v>       0.01851852 </v>
   <v>       0.01851852 </v>
   <v>       0.01851852 </v>
   <v>       0.01851852 </v>
   <v>       0.01851852 </v>
   <v>       0.01851852 </v>
  </varray>
 </kpoints>
 <parameters>
  <separator name="general" >
   <i type="string" name="SYSTEM">unknown system</i>
   <i type="logical" name="LCOMPAT"> F  </i>
  </separator>
  <separator name="electronic" >
   <i type="string" name="PREC">normal</i>
   <i name="ENMAX">    400.00000000</i>
   <i name="ENAUG">    400.00000000</i>
   <i name="EDIFF">      0.00000100</i>
   <i type="int" name="IALGO">    68</i>
   <i type="int" name="IWAVPR">    10</i>
   <i type="int" name="NBANDS">   220</i>
   <i name="NELECT">    361.00000000</i>
   <i type="int" name="TURBO">     0</i>
   <i type="int" name="IRESTART">     0</i>
   <i type="int" name="NREBOOT">     0</i>
   <i type="int" name="NMIN">     0</i>
   <i name="EREF">      0.00000000</i>
   <separator name="electronic smearing" >
    <i type="int" name="ISMEAR">    -1</i>
    <i name="SIGMA">      0.10000000</i>
    <i name="KSPACING">      0.50000000</i>
    <i type="logical" name="KGAMMA"> T  </i>
   </separator>
   <separator name="electronic projectors" >
    <i type="logical" name="LREAL"> T  </i>
    <v name="ROPT">     -0.00050000     -0.00050000</v>
    <i type="int" name="LMAXPAW">  -100</i>
    <i type="int" name="LMAXMIX">     2</i>
    <i type="logical" name="NLSPLINE"> F  </i>
   </separator>
   <separator name="electronic startup" >
    <i type="int" name="ISTART">     0</i>
    <i type="int" name="ICHARG">     2</i>
    <i type="int" name="INIWAV">     1</i>
   </separator>
   <separator name="electronic spin" >
    <i type="int" name="ISPIN">     1</i>
    <i type="logical" name="LNONCOLLINEAR"> F  </i>
    <v name="MAGMOM">      1.00000000      1.00000000      1.00000000      1.00000000      1.00000000      1.00000000      1.00000000      1.00000000      1.00000000      1.00000000      1.00000000      1.00000000      1.00000000      1.00000000      1.00000000      1.00000000      1.00000000      1.00000000      1.00000000      1.00000000
      1.00000000      1.00000000      1.00000000      1.00000000      1.00000000      1.00000000      1.00000000      1.00000000      1.00000000      1.00000000      1.00000000      1.00000000      1.00000000      1.00000000      1.00000000      1.00000000      1.00000000</v>
    <i name="NUPDOWN">     -1.00000000</i>
    <i type="logical" name="LSORBIT"> F  </i>
    <v name="SAXIS">      0.00000000      0.00000000      1.00000000</v>
    <i type="logical" name="LSPIRAL"> F  </i>
    <v name="QSPIRAL">      0.00000000      0.00000000      0.00000000</v>
    <i type="logical" name="LZEROZ"> F  </i>
   </separator>
   <separator name="electronic exchange-correlation" >
    <i type="logical" name="LASPH"> F  </i>
    <i type="logical" name="LMETAGGA"> F  </i>
   </separator>
   <separator name="electronic convergence" >
    <i type="int" name="NELM">    60</i>
    <i type="int" name="NELMDL">    -4</i>
    <i type="int" name="NELMIN">     4</i>
    <i name="ENINI">    400.00000000</i>
    <separator name="electronic convergence detail" >
     <i type="logical" name="LDIAG"> T  </i>
     <i type="logical" name="LSUBROT"> F  </i>
     <i name="WEIMIN">      0.00000000</i>
     <i name="EBREAK">      0.00000000</i>
     <i name="DEPER">      0.30000000</i>
     <i type="int" name="NRMM">     4</i>
     <i name="TIME">      0.40000000</i>
    </separator>
   </separator>
   <separator name="electronic mixer" >
    <i name="AMIX">      0.40000000</i>
    <i name="BMIX">      1.00000000</i>
    <i name="AMIN">      0.10000000</i>
    <i name="AMIX_MAG">      1.60000000</i>
    <i name="BMIX_MAG">      1.00000000</i>
    <separator name="electronic mixer details" >
     <i type="int" name="IMIX">     4</i>
     <i type="logical" name="MIXFIRST"> F  </i>
     <i type="int" name="MAXMIX">   -45</i>
     <i name="WC">    100.00000000</i>
     <i type="int" name="INIMIX">     1</i>
     <i type="int" name="MIXPRE">     1</i>
     <i type="int" name="MREMOVE">     5</i>
    </separator>
   </separator>
   <separator name="electronic dipolcorrection" >
    <i type="logical" name="LDIPOL"> F  </i>
    <i type="logical" name="LMONO"> F  </i>
    <i type="int" name="IDIPOL">     0</i>
    <i name="EPSILON">      1.00000000</i>
    <v name="DIPOL">   -100.00000000   -100.00000000   -100.00000000</v>
    <i name="EFIELD">      0.00000000</i>
   </separator>
  </separator>
  <separator name="grids" >
   <i type="int" name="NGX">    42</i>
   <i type="int" name="NGY">    42</i>
   <i type="int" name="NGZ">   108</i>
   <i type="int" name="NGXF">    84</i>
   <i type="int" name="NGYF">    84</i>
   <i type="int" name="NGZF">   216</i>
   <i type="logical" name="ADDGRID"> F  </i>
  </separator>
  <separator name="ionic" >
   <i type="int" name="NSW">     0</i>
   <i type="int" name="IBRION">    -1</i>
   <i type="int" name="ISIF">     2</i>
   <i name="PSTRESS">      0.00000000</i>
   <i name="EDIFFG">      0.00001000</i>
   <i type="int" name="NFREE">     0</i>
   <i name="POTIM">      0.50000000</i>
   <i name="SMASS">     -3.00000000</i>
   <i name="SCALEE">      1.00000000</i>
  </separator>
  <separator name="ionic md" >
   <i name="TEBEG">      0.00010000</i>
   <i name="TEEND">      0.00010000</i>
   <i type="int" name="NBLOCK">     1</i>
   <i type="int" name="KBLOCK">     1</i>
   <i type="int" name="NPACO">   256</i>
   <i name="APACO">     16.00000000</i>
  </separator>
  <separator name="symmetry" >
   <i type="int" name="ISYM">     2</i>
   <i name="SYMPREC">      0.00001000</i>
  </separator>
  <separator name="dos" >
   <i type="logical" name="LORBIT"> F  </i>
   <v name="RWIGS">     -1.00000000     -1.00000000</v>
   <i type="int" name="NEDOS">   301</i>
   <i name="EMIN">     10.00000000</i>
   <i name="EMAX">    -10.00000000</i>
   <i name="EFERMI">      0.00000000</i>
  </separator>
  <separator name="writing" >
   <i type="int" name="NWRITE">     2</i>
   <i type="logical" name="LWAVE"> F  </i>
   <i type="logical" name="LCHARG"> F  </i>
   <i type="logical" name="LPARD"> F  </i>
   <i type="logical" name="LVTOT"> F  </i>
   <i type="logical" name="LVHAR"> F  </i>
   <i type="logical" name="LELF"> F  </i>
   <i type="logical" name="LOPTICS"> F  </i>
   <v name="STM">      0.00000000      0.00000000      0.00000000      0.00000000      0.00000000      0.00000000      0.00000000</v>
  </separator>
  <separator name="performance" >
   <i type="int" name="NPAR">     5</i>
   <i type="int" name="NSIM">     4</i>
   <i type="int" name="NBLK">    -1</i>
   <i type="logical" name="LPLANE"> T  </i>
   <i type="logical" name="LSCALAPACK"> T  </i>
   <i type="logical" name="LSCAAWARE"> F  </i>
   <i type="logical" name="LSCALU"> F  </i>
   <i type="logical" name="LASYNC"> F  </i>
   <i type="logical" name="LORBITALREAL"> F  </i>
  </separator>
  <separator name="miscellaneous" >
   <i type="int" name="IDIOT">     3</i>
   <i type="logical" name="LMUSIC"> F  </i>
   <v name="POMASS">    195.08000000      1.00000000</v>
   <v name="DARWINR">      0.00000000      0.00000000</v>
   <v name="DARWINV">      1.00000000      1.00000000</v>
   <i type="logical" name="LCORR"> T  </i>
  </separator>
  <i type="logical" name="GGA_COMPAT"> T  </i>
  <i type="logical" name="LBERRY"> F  </i>
  <i type="int" name="ICORELEVEL">     0</i>
  <i type="logical" name="LDAU"> F  </i>
  <i type="int" name="I_CONSTRAINED_M">     0</i>
  <separator name="electronic exchange-correlation" >
   <i type="string" name="GGA">PE</i>
   <i type="int" name="VOSKOWN">     0</i>
   <i type="logical" name="LHFCALC"> F  </i>
   <i type="string" name="PRECFOCK"></i>
   <i type="logical" name="LSYMGRAD"> F  </i>
   <i type="logical" name="LHFONE"> F  </i>
   <i type="logical" name="LRHFCALC"> F  </i>
   <i type="logical" name="LTHOMAS"> F  </i>
   <i type="logical" name="LMODELHF"> F  </i>
   <i name="ENCUT4O">     -1.00000000</i>
   <i type="int" name="EXXOEP">     0</i>
   <i type="int" name="FOURORBIT">     0</i>
   <i name="AEXX">      0.00000000</i>
   <i name="HFALPHA">      0.00000000</i>
   <i name="MCALPHA">      0.00000000</i>
   <i name="ALDAX">      1.00000000</i>
   <i name="AGGAX">      1.00000000</i>
   <i name="ALDAC">      1.00000000</i>
   <i name="AGGAC">      1.00000000</i>
   <i type="int" name="NKREDX">     1</i>
   <i type="int" name="NKREDY">     1</i>
   <i type="int" name="NKREDZ">     1</i>
   <i type="logical" name="SHIFTRED"> F  </i>
   <i type="logical" name="ODDONLY"> F  </i>
   <i type="logical" name="EVENONLY"> F  </i>
   <i type="int" name="LMAXFOCK">     0</i>
   <i type="int" name="NMAXFOCKAE">     0</i>
   <i type="logical" name="LFOCKAEDFT"> F  </i>
   <i name="HFSCREEN">      0.00000000</i>
   <i name="HFSCREENC">      0.00000000</i>
   <i type="int" name="NBANDSGWLOW">     0</i>
  </separator>
  <separator name="vdW DFT" >
   <i type="logical" name="LUSE_VDW"> F  </i>
   <i name="Zab_VDW">     -0.84910000</i>
   <i name="PARAM1">      0.12340000</i>
   <i name="PARAM2">      1.00000000</i>
   <i name="PARAM3">      0.00000000</i>
  </separator>
  <separator name="model GW" >
   <i type="int" name="MODEL_GW">     0</i>
   <i name="MODEL_EPS0">     21.78945654</i>
   <i name="MODEL_ALPHA">      1.00000000</i>
  </separator>
  <separator name="linear response parameters" >
   <i type="logical" name="LEPSILON"> F  </i>
   <i type="logical" name="LRPA"> F  </i>
   <i type="logical" name="LNABLA"> F  </i>
   <i type="logical" name="LVEL"> F  </i>
   <i type="int" name="KINTER">     0</i>
   <i name="CSHIFT">      0.10000000</i>
   <i name="OMEGAMAX">     -1.00000000</i>
   <i name="DEG_THRESHOLD">      0.00200000</i>
  </separator>
  <separator name="orbital magnetization" >
   <i type="logical" name="NUCIND"> F  </i>
   <v name="MAGPOS">      0.00000000      0.00000000      0.00000000</v>
   <i type="logical" name="LNICSALL"> T  </i>
   <i type="logical" name="ORBITALMAG"> F  </i>
   <i type="logical" name="LMAGBLOCH"> F  </i>
   <i type="logical" name="LCHIMAG"> F  </i>
   <i type="logical" name="LGAUGE"> T  </i>
   <i type="int" name="MAGATOM">     0</i>
   <v name="MAGDIPOL">      0.00000000      0.00000000      0.00000000</v>
   <v name="AVECCONST">      0.00000000      0.00000000      0.00000000</v>
  </separator>
  <separator name="response functions" >
   <i type="logical" name="LADDER"> F  </i>
   <i type="logical" name="LFXC"> F  </i>
   <i type="logical" name="LHARTREE"> T  </i>
   <i type="int" name="IBSE">     0</i>
   <v type="int" name="KPOINT">    -1     0     0     0</v>
   <i type="logical" name="LTCTE"> F  </i>
   <i type="logical" name="LTETE"> F  </i>
   <i type="logical" name="LTRIPLET"> F  </i>
   <i type="logical" name="LFXCEPS"> F  </i>
   <i type="logical" name="LFXHEG"> F  </i>
   <i type="int" name="NATURALO">     0</i>
   <i type="logical" name="L2ORDER"> F  </i>
   <i type="logical" name="LUSEW"> F  </i>
   <i name="ENCUTGW">     -2.00000000</i>
   <i name="ENCUTGWSOFT">     -2.00000000</i>
   <i name="ENCUTLF">     -1.00000000</i>
   <i type="int" name="LMAXMP2">    -1</i>
   <i name="SCISSOR">      0.00000000</i>
   <i type="int" name="NOMEGA">     0</i>
   <i type="int" name="NOMEGAR">     0</i>
   <i type="int" name="NBANDSGW">    -1</i>
   <i type="int" name="NBANDSO">    -1</i>
   <i type="int" name="NBANDSV">    -1</i>
   <i type="int" name="NELM">     1</i>
   <i type="int" name="NELMHF">     1</i>
   <i type="int" name="DIM">     3</i>
   <i type="int" name="ANTIRES">     0</i>
   <i name="OMEGAMAX">    -30.00000000</i>
   <i name="OMEGAMIN">    -30.00000000</i>
   <i name="OMEGATL">   -200.00000000</i>
   <i type="int" name="OMEGAGRID">     0</i>
   <i name="CSHIFT">     -0.10000000</i>
   <i type="logical" name="SELFENERGY"> F  </i>
   <i type="logical" name="LSPECTRAL"> F  </i>
   <i type="logical" name="LSPECTRALGW"> F  </i>
   <i type="logical" name="LSINGLES"> F  </i>
   <i type="logical" name="LFERMIGW"> F  </i>
   <i type="logical" name="ODDONLYGW"> F  </i>
   <i type="logical" name="EVENONLYGW"> F  </i>
   <i type="int" name="NKREDLFX">     1</i>
   <i type="int" name="NKREDLFY">     1</i>
   <i type="int" name="NKREDLFZ">     1</i>
   <i type="int" name="MAXMEM">  1800</i>
   <i type="int" name="TELESCOPE">     0</i>
   <i type="int" name="TAUPAR">     1</i>
   <i type="int" name="OMEGAPAR">    -1</i>
   <i name="LAMBDA">      1.00000000</i>
  </separator>
  <separator name="External order field" >
   <i name="OFIELD_KAPPA">      0.00000000</i>
   <v name="OFIELD_K">      0.00000000      0.00000000      0.00000000</v>
   <i name="OFIELD_Q6_NEAR">      0.00000000</i>
   <i name="OFIELD_Q6_FAR">      0.00000000</i>
   <i name="OFIELD_A">      0.00000000</i>
  </separator>
 </parameters>
 <atominfo>
  <atoms>      37 </atoms>
  <types>       2 </types>
  <array name="atoms" >
   <dimension dim="1">ion</dimension>
   <field type="string">element</field>
   <field type="int">atomtype</field>
   <set>
    <rc><c>Pt</c><c>   1</c></rc>
    <rc><c>Pt</c><c>   1</c></rc>
    <rc><c>Pt</c><c>   1</c></rc>
    <rc><c>Pt</c><c>   1</c></rc>
    <rc><c>Pt</c><c>   1</c></rc>
    <rc><c>Pt</c><c>   1</c></rc>
    <rc><c>Pt</c><c>   1</c></rc>
    <rc><c>Pt</c><c>   1</c></rc>
    <rc><c>Pt</c><c>   1</c></rc>
    <rc><c>Pt</c><c>   1</c></rc>
    <rc><c>Pt</c><c>   1</c></rc>
    <rc><c>Pt</c><c>   1</c></rc>
    <rc><c>Pt</c><c>   1</c></rc>
    <rc><c>Pt</c><c>   1</c></rc>
    <rc><c>Pt</c><c>   1</c></rc>
    <rc><c>Pt</c><c>   1</c></rc>
    <rc><c>Pt</c><c>   1</c></rc>
    <rc><c>Pt</c><c>   1</c></rc>
    <rc><c>Pt</c><c>   1</c></rc>
    <rc><c>Pt</c><c>   1</c></rc>
    <rc><c>Pt</c><c>   1</c></rc>
    <rc><c>Pt</c><c>   1</c></rc>
    <rc><c>Pt</c><c>   1</c></rc>
    <rc><c>Pt</c><c>   1</c></rc>
    <rc><c>Pt</c><c>   1</c></rc>
    <rc><c>Pt</c><c>   1</c></rc>
    <rc><c>Pt</c><c>   1</c></rc>
    <rc><c>Pt</c><c>   1</c></rc>
    <rc><c>Pt</c><c>   1</c></rc>
    <rc><c>Pt</c><c>   1</c></rc>
    <rc><c>Pt</c><c>   1</c></rc>
    <rc><c>Pt</c><c>   1</c></rc>
    <rc><c>Pt</c><c>   1</c></rc>
    <rc><c>Pt</c><c>   1</c></rc>
    <rc><c>Pt</c><c>   1</c></rc>
    <rc><c>Pt</c><c>   1</c></rc>
    <rc><c>H </c><c>   2</c></rc>
   </set>
  </array>
  <array name="atomtypes" >
   <dimension dim="1">type</dimension>
   <field type="int">atomspertype</field>
   <field type="string">element</field>
   <field>mass</field>
   <field>valence</field>
   <field type="string">pseudopotential</field>
   <set>
    <rc><c>  36</c><c>Pt</c><c>    195.08000000</c><c>     10.00000000</c><c>  PAW_PBE Pt 04Feb2005                  </c></rc>
    <rc><c>   1</c><c>H </c><c>      1.00000000</c><c>      1.00000000</c><c>  PAW_PBE H 15Jun2001                   </c></rc>
   </set>
  </array>
 </atominfo>
 <structure name="initialpos" >
  <crystal>
   <varray name="basis" >
    <v>       8.42164176       0.00000000       0.00000000 </v>
    <v>       4.21082088       7.29335571       0.00000000 </v>
    <v>       0.00000000       0.00000000      21.87624171 </v>
   </varray>
   <i name="volume">   1343.68315334 </i>
   <varray name="rec_basis" >
    <v>       0.11874169      -0.06855555       0.00000000 </v>
    <v>       0.00000000       0.13711110       0.00000000 </v>
    <v>       0.00000000       0.00000000       0.04571169 </v>
   </varray>
  </crystal>
  <varray name="positions" >
   <v>       0.00000000       0.00000000       0.34283768 </v>
   <v>       0.33333333       0.00000000       0.34283768 </v>
   <v>       0.66666667       0.00000000       0.34283768 </v>
   <v>       0.00000000       0.33333333       0.34283768 </v>
   <v>       0.33333333       0.33333333       0.34283768 </v>
   <v>       0.66666667       0.33333333       0.34283768 </v>
   <v>       0.00000000       0.66666667       0.34283768 </v>
   <v>       0.33333333       0.66666667       0.34283768 </v>
   <v>       0.66666667       0.66666667       0.34283768 </v>
   <v>       0.11111111       0.11111111       0.44761256 </v>
   <v>       0.44444444       0.11111111       0.44761256 </v>
   <v>       0.77777778       0.11111111       0.44761256 </v>
   <v>       0.11111111       0.44444444       0.44761256 </v>
   <v>       0.44444444       0.44444444       0.44761256 </v>
   <v>       0.77777778       0.44444444       0.44761256 </v>
   <v>       0.11111111       0.77777778       0.44761256 </v>
   <v>       0.44444444       0.77777778       0.44761256 </v>
   <v>       0.77777778       0.77777778       0.44761256 </v>
   <v>       0.88957354       0.22192121       0.55197483 </v>
   <v>       0.22184745       0.22192564       0.55197916 </v>
   <v>       0.55560047       0.22212426       0.55111662 </v>
   <v>       0.88914713       0.55502084       0.55143657 </v>
   <v>       0.22210731       0.55559497       0.55112482 </v>
   <v>       0.55561817       0.55558382       0.55112383 </v>
   <v>       0.88919420       0.88927977       0.55143468 </v>
   <v>       0.22192341       0.88947715       0.55193498 </v>
   <v>       0.55485472       0.88929381       0.55143324 </v>
   <v>       0.99703119       0.99714358       0.65829919 </v>
   <v>       0.33917174       0.99714233       0.65829595 </v>
   <v>       0.66651762       0.00030216       0.65642122 </v>
   <v>       0.99687936       0.33957639       0.65829844 </v>
   <v>       0.33452513       0.33464418       0.65639893 </v>
   <v>       0.66416332       0.33464339       0.65640240 </v>
   <v>       0.00013747       0.66678413       0.65642089 </v>
   <v>       0.33449317       0.66434345       0.65639776 </v>
   <v>       0.66640679       0.66677830       0.65642263 </v>
   <v>       0.11057118       0.11203250       0.69700663 </v>
  </varray>
  <varray name="selective"  type="logical" >
   <v type="logical" >  F  F  F </v>
   <v type="logical" >  F  F  F </v>
   <v type="logical" >  F  F  F </v>
   <v type="logical" >  F  F  F </v>
   <v type="logical" >  F  F  F </v>
   <v type="logical" >  F  F  F </v>
   <v type="logical" >  F  F  F </v>
   <v type="logical" >  F  F  F </v>
   <v type="logical" >  F  F  F </v>
   <v type="logical" >  F  F  F </v>
   <v type="logical" >  F  F  F </v>
   <v type="logical" >  F  F  F </v>
   <v type="logical" >  F  F  F </v>
   <v type="logical" >  F  F  F </v>
   <v type="logical" >  F  F  F </v>
   <v type="logical" >  F  F  F </v>
   <v type="logical" >  F  F  F </v>
   <v type="logical" >  F  F  F </v>
   <v type="logical" >  T  T  T </v>
   <v type="logical" >  T  T  T </v>
   <v type="logical" >  T  T  T </v>
   <v type="logical" >  T  T  T </v>
   <v type="logical" >  T  T  T </v>
   <v type="logical" >  T  T  T </v>
   <v type="logical" >  T  T  T </v>
   <v type="logical" >  T  T  T </v>
   <v type="logical" >  T  T  T </v>
   <v type="logical" >  T  T  T </v>
   <v type="logical" >  T  T  T </v>
   <v type="logical" >  T  T  T </v>
   <v type="logical" >  T  T  T </v>
   <v type="logical" >  T  T  T </v>
   <v type="logical" >  T  T  T </v>
   <v type="logical" >  T  T  T </v>
   <v type="logical" >  T  T  T </v>
   <v type="logical" >  T  T  T </v>
   <v type="logical" >  T  T  T </v>
  </varray>
  <nose>
   <v>      -3.00000000       0.00000000       0.00010000       0.00010000 </v>
  </nose>
 </structure>
 <calculation>
  <scstep>
   <time name="dav">   72.19   72.33</time>
   <time name="total">   73.69   73.83</time>
   <energy>
    <i name="alphaZ">    920.05075105 </i>
    <i name="ewald">  93265.06768705 </i>
    <i name="hartreedc">-121324.45657792 </i>
    <i name="XCdc">    123.75272775 </i>
    <i name="pawpsdc">  25062.58130285 </i>
    <i name="pawaedc"> -24044.39352455 </i>
    <i name="eentropy">     -0.56596307 </i>
    <i name="bandstr">   1897.43838983 </i>
    <i name="atom">  26260.50889777 </i>
    <i name="e_fr_energy">   2159.98369077 </i>
    <i name="e_wo_entrp">   2160.54965384 </i>
    <i name="e_0_energy">   2160.26667230 </i>
   </energy>
  </scstep>
  <scstep>
   <time name="dav">   84.17   84.26</time>
   <time name="total">   84.21   84.33</time>
   <energy>
    <i name="e_fr_energy">    -71.75644741 </i>
    <i name="e_wo_entrp">    -70.66035245 </i>
    <i name="e_0_energy">    -71.20839993 </i>
   </energy>
  </scstep>
  <scstep>
   <time name="dav">   84.83   85.32</time>
   <time name="total">   84.84   85.35</time>
   <energy>
    <i name="e_fr_energy">   -221.12900315 </i>
    <i name="e_wo_entrp">   -219.21093111 </i>
    <i name="e_0_energy">   -220.16996713 </i>
   </energy>
  </scstep>
  <scstep>
   <time name="dav">   92.54   92.54</time>
   <time name="total">   94.88   94.92</time>
   <energy>
    <i name="e_fr_energy">   -227.00638597 </i>
    <i name="e_wo_entrp">   -225.04342777 </i>
    <i name="e_0_energy">   -226.02490687 </i>
   </energy>
  </scstep>
  <scstep>
   <time name="diag">   10.78   10.79</time>
   <time name="diis">   28.06   28.13</time>
   <time name="orth">    2.97    3.01</time>
   <time name="total">   44.94   45.17</time>
   <energy>
    <i name="e_fr_energy">   -218.27834260 </i>
    <i name="e_wo_entrp">   -216.14890289 </i>
    <i name="e_0_energy">   -217.21362275 </i>
   </energy>
  </scstep>
  <scstep>
   <time name="diag">   10.84   10.89</time>
   <time name="diis">   28.35   28.34</time>
   <time name="orth">    2.91    2.94</time>
   <time name="total">   44.51   44.59</time>
   <energy>
    <i name="e_fr_energy">   -261.09910095 </i>
    <i name="e_wo_entrp">   -259.90725004 </i>
    <i name="e_0_energy">   -260.50317549 </i>
   </energy>
  </scstep>
  <scstep>
   <time name="diag">   10.79   10.87</time>
   <time name="diis">   27.68   27.78</time>
   <time name="orth">    2.95    2.96</time>
   <time name="total">   44.24   44.54</time>
   <energy>
    <i name="e_fr_energy">   -215.21398929 </i>
    <i name="e_wo_entrp">   -213.15561598 </i>
    <i name="e_0_energy">   -214.18480264 </i>
   </energy>
  </scstep>
  <scstep>
   <time name="diag">   10.87   10.87</time>
   <time name="diis">   29.23   29.50</time>
   <time name="orth">    2.96    2.98</time>
   <time name="total">   45.52   45.81</time>
   <energy>
    <i name="e_fr_energy">   -218.66989950 </i>
    <i name="e_wo_entrp">   -216.93348161 </i>
    <i name="e_0_energy">   -217.80169055 </i>
   </energy>
  </scstep>
  <scstep>
   <time name="diag">   10.74   10.95</time>
   <time name="diis">   29.35   29.73</time>
   <time name="orth">    2.99    3.00</time>
   <time name="total">   46.28   46.91</time>
   <energy>
    <i name="e_fr_energy">   -217.34580004 </i>
    <i name="e_wo_entrp">   -215.38571949 </i>
    <i name="e_0_energy">   -216.36575976 </i>
   </energy>
  </scstep>
  <scstep>
   <time name="diag">   11.20   11.21</time>
   <time name="diis">   28.15   28.45</time>
   <time name="orth">    3.08    3.10</time>
   <time name="total">   44.84   45.18</time>
   <energy>
    <i name="e_fr_energy">   -213.98575374 </i>
    <i name="e_wo_entrp">   -211.84515528 </i>
    <i name="e_0_energy">   -212.91545451 </i>
   </energy>
  </scstep>
  <scstep>
   <time name="diag">   10.88   10.87</time>
   <time name="diis">   29.19   29.19</time>
   <time name="orth">    3.14    3.14</time>
   <time name="total">   45.67   45.71</time>
   <energy>
    <i name="e_fr_energy">   -213.35130012 </i>
    <i name="e_wo_entrp">   -211.20146109 </i>
    <i name="e_0_energy">   -212.27638061 </i>
   </energy>
  </scstep>
  <scstep>
   <time name="diag">   11.00   11.00</time>
   <time name="diis">   29.48   29.59</time>
   <time name="orth">    3.02    3.02</time>
   <time name="total">   45.84   45.97</time>
   <energy>
    <i name="e_fr_energy">   -213.27640941 </i>
    <i name="e_wo_entrp">   -211.13213969 </i>
    <i name="e_0_energy">   -212.20427455 </i>
   </energy>
  </scstep>
  <scstep>
   <time name="diag">   10.70   10.85</time>
   <time name="diis">   29.82   29.90</time>
   <time name="orth">    2.93    3.02</time>
   <time name="total">   46.89   47.28</time>
   <energy>
    <i name="e_fr_energy">   -213.26880290 </i>
    <i name="e_wo_entrp">   -211.12072727 </i>
    <i name="e_0_energy">   -212.19476508 </i>
   </energy>
  </scstep>
  <scstep>
   <time name="diag">   12.53   12.60</time>
   <time name="diis">   27.65   27.85</time>
   <time name="orth">    2.99    3.01</time>
   <time name="total">   45.65   46.01</time>
   <energy>
    <i name="e_fr_energy">   -213.26048993 </i>
    <i name="e_wo_entrp">   -211.10762281 </i>
    <i name="e_0_energy">   -212.18405637 </i>
   </energy>
  </scstep>
  <scstep>
   <time name="diag">   10.92   10.91</time>
   <time name="diis">   28.14   28.43</time>
   <time name="orth">    2.97    3.07</time>
   <time name="total">   45.03   45.68</time>
   <energy>
    <i name="e_fr_energy">   -213.25738144 </i>
    <i name="e_wo_entrp">   -211.10340444 </i>
    <i name="e_0_energy">   -212.18039294 </i>
   </energy>
  </scstep>
  <scstep>
   <time name="diag">   10.96   10.98</time>
   <time name="diis">   29.94   30.01</time>
   <time name="orth">    2.98    2.98</time>
   <time name="total">   46.19   46.30</time>
   <energy>
    <i name="e_fr_energy">   -213.25528472 </i>
    <i name="e_wo_entrp">   -211.10207631 </i>
    <i name="e_0_energy">   -212.17868051 </i>
   </energy>
  </scstep>
  <scstep>
   <time name="diag">   10.96   11.08</time>
   <time name="diis">   30.42   30.49</time>
   <time name="orth">    3.04    3.08</time>
   <time name="total">   48.49   48.74</time>
   <energy>
    <i name="e_fr_energy">   -213.25509648 </i>
    <i name="e_wo_entrp">   -211.10174381 </i>
    <i name="e_0_energy">   -212.17842015 </i>
   </energy>
  </scstep>
  <scstep>
   <time name="diag">   11.03   11.07</time>
   <time name="diis">   28.81   28.83</time>
   <time name="orth">    3.03    3.05</time>
   <time name="total">   45.25   45.35</time>
   <energy>
    <i name="e_fr_energy">   -213.25487636 </i>
    <i name="e_wo_entrp">   -211.10164859 </i>
    <i name="e_0_energy">   -212.17826248 </i>
   </energy>
  </scstep>
  <scstep>
   <time name="diag">   17.93   17.94</time>
   <time name="diis">   28.32   28.80</time>
   <time name="orth">    3.01    3.06</time>
   <time name="total">   52.39   53.08</time>
   <energy>
    <i name="e_fr_energy">   -213.25485773 </i>
    <i name="e_wo_entrp">   -211.10170907 </i>
    <i name="e_0_energy">   -212.17828340 </i>
   </energy>
  </scstep>
  <scstep>
   <time name="diag">   10.87   11.15</time>
   <time name="diis">   28.51   28.91</time>
   <time name="orth">    5.47    5.89</time>
   <time name="total">   47.32   48.44</time>
   <energy>
    <i name="e_fr_energy">   -213.25485319 </i>
    <i name="e_wo_entrp">   -211.10160488 </i>
    <i name="e_0_energy">   -212.17822903 </i>
   </energy>
  </scstep>
  <scstep>
   <time name="diag">   10.90   10.90</time>
   <time name="diis">   29.10   29.18</time>
   <time name="orth">    2.93    2.95</time>
   <time name="total">   45.83   45.99</time>
   <energy>
    <i name="e_fr_energy">   -213.25488316 </i>
    <i name="e_wo_entrp">   -211.10160956 </i>
    <i name="e_0_energy">   -212.17824636 </i>
   </energy>
  </scstep>
  <scstep>
   <time name="diag">   10.81   10.96</time>
   <time name="diis">   28.78   28.86</time>
   <time name="orth">    2.98    2.99</time>
   <time name="total">   44.99   45.26</time>
   <energy>
    <i name="e_fr_energy">   -213.25495243 </i>
    <i name="e_wo_entrp">   -211.10156282 </i>
    <i name="e_0_energy">   -212.17825762 </i>
   </energy>
  </scstep>
  <scstep>
   <time name="diag">   10.88   10.91</time>
   <time name="diis">   23.93   23.91</time>
   <time name="orth">    3.04    3.03</time>
   <time name="total">   41.16   41.24</time>
   <energy>
    <i name="e_fr_energy">   -213.25500374 </i>
    <i name="e_wo_entrp">   -211.10158965 </i>
    <i name="e_0_energy">   -212.17829670 </i>
   </energy>
  </scstep>
  <scstep>
   <time name="diag">   11.09   11.11</time>
   <time name="diis">   23.34   23.41</time>
   <time name="orth">    2.95    2.98</time>
   <time name="total">   39.78   39.92</time>
   <energy>
    <i name="e_fr_energy">   -213.25507045 </i>
    <i name="e_wo_entrp">   -211.10162991 </i>
    <i name="e_0_energy">   -212.17835018 </i>
   </energy>
  </scstep>
  <scstep>
   <time name="diag">   10.65   10.67</time>
   <time name="diis">   19.82   19.91</time>
   <time name="orth">    3.11    3.15</time>
   <time name="total">   36.79   36.98</time>
   <energy>
    <i name="e_fr_energy">   -213.25509867 </i>
    <i name="e_wo_entrp">   -211.10169915 </i>
    <i name="e_0_energy">   -212.17839891 </i>
   </energy>
  </scstep>
  <scstep>
   <time name="diag">   10.98   10.97</time>
   <time name="diis">   19.84   19.88</time>
   <time name="orth">    2.86    2.97</time>
   <time name="total">   36.05   36.27</time>
   <energy>
    <i name="e_fr_energy">   -213.25514014 </i>
    <i name="e_wo_entrp">   -211.10180480 </i>
    <i name="e_0_energy">   -212.17847247 </i>
   </energy>
  </scstep>
  <scstep>
   <time name="diag">   11.11   11.12</time>
   <time name="diis">   18.18   18.48</time>
   <time name="orth">    3.00    3.02</time>
   <time name="total">   35.01   35.44</time>
   <energy>
    <i name="e_fr_energy">   -213.25516728 </i>
    <i name="e_wo_entrp">   -211.10183562 </i>
    <i name="e_0_energy">   -212.17850145 </i>
   </energy>
  </scstep>
  <scstep>
   <time name="diag">   11.94   12.00</time>
   <time name="diis">   17.90   17.93</time>
   <time name="orth">    2.96    3.00</time>
   <time name="total">   35.12   35.26</time>
   <energy>
    <i name="e_fr_energy">   -213.25518526 </i>
    <i name="e_wo_entrp">   -211.10184305 </i>
    <i name="e_0_energy">   -212.17851416 </i>
   </energy>
  </scstep>
  <scstep>
   <time name="diag">   11.86   11.97</time>
   <time name="diis">   17.32   17.43</time>
   <time name="orth">    2.95    2.95</time>
   <time name="total">   35.30   35.76</time>
   <energy>
    <i name="e_fr_energy">   -213.25521739 </i>
    <i name="e_wo_entrp">   -211.10184256 </i>
    <i name="e_0_energy">   -212.17852997 </i>
   </energy>
  </scstep>
  <scstep>
   <time name="diag">   11.05   11.05</time>
   <time name="diis">   16.09   16.08</time>
   <time name="orth">    2.98    3.00</time>
   <time name="total">   32.69   32.70</time>
   <energy>
    <i name="e_fr_energy">   -213.25523147 </i>
    <i name="e_wo_entrp">   -211.10185325 </i>
    <i name="e_0_energy">   -212.17854236 </i>
   </energy>
  </scstep>
  <scstep>
   <time name="diag">   10.79   10.89</time>
   <time name="diis">   16.06   16.30</time>
   <time name="orth">    3.62    3.93</time>
   <time name="total">   33.18   34.00</time>
   <energy>
    <i name="e_fr_energy">   -213.25524441 </i>
    <i name="e_wo_entrp">   -211.10187338 </i>
    <i name="e_0_energy">   -212.17855889 </i>
   </energy>
  </scstep>
  <scstep>
   <time name="diag">   10.81   10.84</time>
   <time name="diis">   14.03   14.03</time>
   <time name="orth">    3.17    3.17</time>
   <time name="total">   30.44   30.47</time>
   <energy>
    <i name="e_fr_energy">   -213.25524944 </i>
    <i name="e_wo_entrp">   -211.10188163 </i>
    <i name="e_0_energy">   -212.17856553 </i>
   </energy>
  </scstep>
  <scstep>
   <time name="diag">   10.82   10.84</time>
   <time name="diis">   14.56   14.69</time>
   <time name="orth">    5.08    5.11</time>
   <time name="total">   33.51   34.17</time>
   <energy>
    <i name="e_fr_energy">   -213.25525414 </i>
    <i name="e_wo_entrp">   -211.10188323 </i>
    <i name="e_0_energy">   -212.17856869 </i>
   </energy>
  </scstep>
  <scstep>
   <time name="diag">   10.93   10.97</time>
   <time name="diis">   14.56   14.73</time>
   <time name="orth">    2.92    2.94</time>
   <time name="total">   30.77   31.21</time>
   <energy>
    <i name="e_fr_energy">   -213.25525844 </i>
    <i name="e_wo_entrp">   -211.10188418 </i>
    <i name="e_0_energy">   -212.17857131 </i>
   </energy>
  </scstep>
  <scstep>
   <time name="diag">   10.79   10.89</time>
   <time name="diis">   13.09   13.28</time>
   <time name="orth">    3.02    3.07</time>
   <time name="total">   29.74   30.26</time>
   <energy>
    <i name="e_fr_energy">   -213.25525972 </i>
    <i name="e_wo_entrp">   -211.10188648 </i>
    <i name="e_0_energy">   -212.17857310 </i>
   </energy>
  </scstep>
  <scstep>
   <time name="diag">   10.70   10.82</time>
   <time name="diis">   11.76   11.93</time>
   <time name="orth">    3.09    3.11</time>
   <time name="total">   25.62   25.95</time>
   <energy>
    <i name="alphaZ">    920.05075105 </i>
    <i name="ewald">  93265.06768705 </i>
    <i name="hartreedc">-120966.22566564 </i>
    <i name="XCdc">    111.04927224 </i>
    <i name="pawpsdc">  31667.45215018 </i>
    <i name="pawaedc"> -30746.40078010 </i>
    <i name="eentropy">     -2.15337251 </i>
    <i name="bandstr">   -722.60420010 </i>
    <i name="atom">  26260.50889777 </i>
    <i name="e_fr_energy">   -213.25526005 </i>
    <i name="e_wo_entrp">   -211.10188754 </i>
    <i name="e_0_energy">   -212.17857379 </i>
   </energy>
  </scstep>
  <structure>
   <crystal>
    <varray name="basis" >
     <v>       8.42164176       0.00000000       0.00000000 </v>
     <v>       4.21082088       7.29335571       0.00000000 </v>
     <v>       0.00000000       0.00000000      21.87624171 </v>
    </varray>
    <i name="volume">   1343.68315334 </i>
    <varray name="rec_basis" >
     <v>       0.11874169      -0.06855555       0.00000000 </v>
     <v>       0.00000000       0.13711110       0.00000000 </v>
     <v>       0.00000000       0.00000000       0.04571169 </v>
    </varray>
   </crystal>
   <varray name="positions" >
    <v>       0.00000000       0.00000000       0.34283768 </v>
    <v>       0.33333333       0.00000000       0.34283768 </v>
    <v>       0.66666667       0.00000000       0.34283768 </v>
    <v>       0.00000000       0.33333333       0.34283768 </v>
    <v>       0.33333333       0.33333333       0.34283768 </v>
    <v>       0.66666667       0.33333333       0.34283768 </v>
    <v>       0.00000000       0.66666667       0.34283768 </v>
    <v>       0.33333333       0.66666667       0.34283768 </v>
    <v>       0.66666667       0.66666667       0.34283768 </v>
    <v>       0.11111111       0.11111111       0.44761256 </v>
    <v>       0.44444444       0.11111111       0.44761256 </v>
    <v>       0.77777778       0.11111111       0.44761256 </v>
    <v>       0.11111111       0.44444444       0.44761256 </v>
    <v>       0.44444444       0.44444444       0.44761256 </v>
    <v>       0.77777778       0.44444444       0.44761256 </v>
    <v>       0.11111111       0.77777778       0.44761256 </v>
    <v>       0.44444444       0.77777778       0.44761256 </v>
    <v>       0.77777778       0.77777778       0.44761256 </v>
    <v>       0.88957354       0.22192121       0.55197483 </v>
    <v>       0.22184745       0.22192564       0.55197916 </v>
    <v>       0.55560047       0.22212426       0.55111662 </v>
    <v>       0.88914713       0.55502084       0.55143657 </v>
    <v>       0.22210731       0.55559497       0.55112482 </v>
    <v>       0.55561817       0.55558382       0.55112383 </v>
    <v>       0.88919420       0.88927977       0.55143468 </v>
    <v>       0.22192341       0.88947715       0.55193498 </v>
    <v>       0.55485472       0.88929381       0.55143324 </v>
    <v>       0.99703119       0.99714358       0.65829919 </v>
    <v>       0.33917174       0.99714233       0.65829595 </v>
    <v>       0.66651762       0.00030216       0.65642122 </v>
    <v>       0.99687936       0.33957639       0.65829844 </v>
    <v>       0.33452513       0.33464418       0.65639893 </v>
    <v>       0.66416332       0.33464339       0.65640240 </v>
    <v>       0.00013747       0.66678413       0.65642089 </v>
    <v>       0.33449317       0.66434345       0.65639776 </v>
    <v>       0.66640679       0.66677830       0.65642263 </v>
    <v>       0.11057118       0.11203250       0.69700663 </v>
   </varray>
  </structure>
  <varray name="forces" >
   <v>      -0.00518543      -0.00248967      -0.04598452 </v>
   <v>       0.00519212      -0.00247546      -0.04592909 </v>
   <v>       0.00006200       0.00939625      -0.04695823 </v>
   <v>       0.00003734       0.00621275      -0.04561533 </v>
   <v>      -0.00244498      -0.00127484      -0.05224882 </v>
   <v>       0.00255944      -0.00127870      -0.05230470 </v>
   <v>       0.00798095      -0.00397195      -0.04649660 </v>
   <v>       0.00004209       0.00319461      -0.05235322 </v>
   <v>      -0.00796997      -0.00401904      -0.04651199 </v>
   <v>       0.00024173       0.00102543       0.13853083 </v>
   <v>      -0.01806082      -0.01244899       0.06698510 </v>
   <v>       0.01797072      -0.01262038       0.06726171 </v>
   <v>      -0.02100672      -0.00809377       0.06829358 </v>
   <v>      -0.00015474       0.00037510       0.03143670 </v>
   <v>       0.02086778      -0.00798858       0.06805941 </v>
   <v>      -0.00430273       0.02125111       0.06608053 </v>
   <v>       0.00431625       0.02123229       0.06627279 </v>
   <v>      -0.00006693       0.00162581      -0.02493872 </v>
   <v>      -0.00630268       0.00484032      -0.00989773 </v>
   <v>       0.00532934       0.00484165      -0.01069201 </v>
   <v>       0.00060010      -0.00306228      -0.01020676 </v>
   <v>       0.00002687      -0.00613122      -0.01194536 </v>
   <v>      -0.00271783       0.00288289      -0.01431473 </v>
   <v>       0.00326457       0.00343507      -0.01398917 </v>
   <v>       0.00433018       0.00110768      -0.01324777 </v>
   <v>       0.00045822      -0.00194260      -0.00582838 </v>
   <v>      -0.00471216      -0.00013429      -0.01310098 </v>
   <v>       0.00006298       0.00232064       0.00330324 </v>
   <v>      -0.00109235       0.00264342       0.00360185 </v>
   <v>      -0.00055858       0.00006408       0.01050612 </v>
   <v>      -0.00001593      -0.00987699      -0.00320070 </v>
   <v>      -0.00924852      -0.00237818      -0.01166459 </v>
   <v>       0.00937483      -0.00242520      -0.01232432 </v>
   <v>      -0.00362977      -0.00402476       0.00811203 </v>
   <v>       0.00014557       0.01107799      -0.00974845 </v>
   <v>       0.00355056      -0.00382766       0.00773325 </v>
   <v>       0.00105651      -0.00706255      -0.00667496 </v>
  </varray>
  <varray name="stress" >
   <v>     -42.28696113       0.00514355       0.00072176 </v>
   <v>       0.00514363     -42.26914295      -0.05573853 </v>
   <v>       0.00072189      -0.05573851      -0.24365998 </v>
  </varray>
  <energy>
   <i name="e_fr_energy">   -213.25526005 </i>
   <i name="e_wo_entrp">   -212.17857379 </i>
   <i name="e_0_energy">     -2.15337251 </i>
  </energy>
  <time name="totalsc"> 1688.91 1700.85</time>
  <eigenvalues>
   <array>
    <dimension dim="1">band</dimension>
    <dimension dim="2">kpoint</dimension>
    <dimension dim="3">spin</dimension>
    <field>eigene</field>
    <field>occ</field>
    <set>
     <set comment="spin 1">
      <set comment="kpoint 1">
       <r>   -8.1600    1.0000 </r>
       <r>   -7.0351    1.0000 </r>
       <r>   -6.2819    1.0000 </r>
       <r>   -5.8356    1.0000 </r>
       <r>   -5.7206    1.0000 </r>
       <r>   -5.7156    1.0000 </r>
       <r>   -5.6428    1.0000 </r>
       <r>   -5.5668    1.0000 </r>
       <r>   -5.5619    1.0000 </r>
       <r>   -5.5278    1.0000 </r>
       <r>   -5.2768    1.0000 </r>
       <r>   -5.0840    1.0000 </r>
       <r>   -5.0796    1.0000 </r>
       <r>   -5.0585    1.0000 </r>
       <r>   -5.0497    1.0000 </r>
       <r>   -5.0482    1.0000 </r>
       <r>   -4.9424    1.0000 </r>
       <r>   -4.5980    1.0000 </r>
       <r>   -4.5828    1.0000 </r>
       <r>   -4.5596    1.0000 </r>
       <r>   -4.5448    1.0000 </r>
       <r>   -4.5398    1.0000 </r>
       <r>   -4.4790    1.0000 </r>
       <r>   -4.4251    1.0000 </r>
       <r>   -4.3859    1.0000 </r>
       <r>   -4.3304    1.0000 </r>
       <r>   -4.2649    1.0000 </r>
       <r>   -4.2433    1.0000 </r>
       <r>   -4.2027    1.0000 </r>
       <r>   -4.1763    1.0000 </r>
       <r>   -4.1744    1.0000 </r>
       <r>   -4.1553    1.0000 </r>
       <r>   -4.1347    1.0000 </r>
       <r>   -4.1056    1.0000 </r>
       <r>   -4.1052    1.0000 </r>
       <r>   -4.0669    1.0000 </r>
       <r>   -4.0391    1.0000 </r>
       <r>   -4.0101    1.0000 </r>
       <r>   -3.9293    1.0000 </r>
       <r>   -3.9291    1.0000 </r>
       <r>   -3.6386    1.0000 </r>
       <r>   -3.4879    1.0000 </r>
       <r>   -3.4847    1.0000 </r>
       <r>   -3.4548    1.0000 </r>
       <r>   -3.4464    1.0000 </r>
       <r>   -3.4347    1.0000 </r>
       <r>   -3.4192    1.0000 </r>
       <r>   -3.3682    1.0000 </r>
       <r>   -3.3295    1.0000 </r>
       <r>   -3.2879    1.0000 </r>
       <r>   -3.2014    1.0000 </r>
       <r>   -3.2009    1.0000 </r>
       <r>   -3.1191    1.0000 </r>
       <r>   -3.1142    1.0000 </r>
       <r>   -3.0758    1.0000 </r>
       <r>   -2.6258    1.0000 </r>
       <r>   -2.6177    1.0000 </r>
       <r>   -2.6108    1.0000 </r>
       <r>   -2.5918    1.0000 </r>
       <r>   -2.5684    1.0000 </r>
       <r>   -2.5435    1.0000 </r>
       <r>   -2.5123    1.0000 </r>
       <r>   -2.5062    1.0000 </r>
       <r>   -2.5056    1.0000 </r>
       <r>   -2.4900    1.0000 </r>
       <r>   -2.4469    1.0000 </r>
       <r>   -2.4339    1.0000 </r>
       <r>   -2.3837    1.0000 </r>
       <r>   -2.3827    1.0000 </r>
       <r>   -2.3722    1.0000 </r>
       <r>   -2.3578    1.0000 </r>
       <r>   -2.3383    1.0000 </r>
       <r>   -2.2809    1.0000 </r>
       <r>   -2.2762    1.0000 </r>
       <r>   -2.2603    1.0000 </r>
       <r>   -2.2412    1.0000 </r>
       <r>   -2.2068    1.0000 </r>
       <r>   -2.1657    1.0000 </r>
       <r>   -2.1651    1.0000 </r>
       <r>   -2.0981    1.0000 </r>
       <r>   -2.0952    1.0000 </r>
       <r>   -2.0810    1.0000 </r>
       <r>   -2.0612    1.0000 </r>
       <r>   -1.9713    1.0000 </r>
       <r>   -1.9381    1.0000 </r>
       <r>   -1.9365    1.0000 </r>
       <r>   -1.9118    1.0000 </r>
       <r>   -1.8925    1.0000 </r>
       <r>   -1.8814    1.0000 </r>
       <r>   -1.8747    1.0000 </r>
       <r>   -1.8476    1.0000 </r>
       <r>   -1.8210    1.0000 </r>
       <r>   -1.8011    1.0000 </r>
       <r>   -1.7632    1.0000 </r>
       <r>   -1.7590    1.0000 </r>
       <r>   -1.7207    1.0000 </r>
       <r>   -1.7105    1.0000 </r>
       <r>   -1.6157    1.0000 </r>
       <r>   -1.6149    1.0000 </r>
       <r>   -1.5809    1.0000 </r>
       <r>   -1.5675    1.0000 </r>
       <r>   -1.5672    1.0000 </r>
       <r>   -1.5618    1.0000 </r>
       <r>   -1.5469    1.0000 </r>
       <r>   -1.5102    1.0000 </r>
       <r>   -1.4707    1.0000 </r>
       <r>   -1.4207    1.0000 </r>
       <r>   -1.3628    1.0000 </r>
       <r>   -1.2431    1.0000 </r>
       <r>   -1.2006    1.0000 </r>
       <r>   -1.1630    1.0000 </r>
       <r>   -1.0749    1.0000 </r>
       <r>   -1.0475    1.0000 </r>
       <r>   -0.9642    1.0000 </r>
       <r>   -0.9531    1.0000 </r>
       <r>   -0.9437    1.0000 </r>
       <r>   -0.9331    1.0000 </r>
       <r>   -0.9145    1.0000 </r>
       <r>   -0.8949    1.0000 </r>
       <r>   -0.8671    1.0000 </r>
       <r>   -0.8209    1.0000 </r>
       <r>   -0.8089    1.0000 </r>
       <r>   -0.8083    1.0000 </r>
       <r>   -0.6358    1.0000 </r>
       <r>   -0.5650    1.0000 </r>
       <r>   -0.5624    1.0000 </r>
       <r>   -0.4571    1.0000 </r>
       <r>   -0.4490    1.0000 </r>
       <r>   -0.4093    1.0000 </r>
       <r>   -0.4045    1.0000 </r>
       <r>   -0.3913    1.0000 </r>
       <r>   -0.3903    1.0000 </r>
       <r>   -0.3713    1.0000 </r>
       <r>   -0.2940    1.0000 </r>
       <r>   -0.2693    1.0000 </r>
       <r>   -0.2688    1.0000 </r>
       <r>   -0.2591    1.0000 </r>
       <r>   -0.1308    1.0000 </r>
       <r>   -0.1267    1.0000 </r>
       <r>   -0.0772    1.0000 </r>
       <r>   -0.0705    1.0000 </r>
       <r>   -0.0573    1.0000 </r>
       <r>   -0.0380    1.0000 </r>
       <r>    0.0107    1.0000 </r>
       <r>    0.0474    1.0000 </r>
       <r>    0.1201    1.0000 </r>
       <r>    0.1704    0.9999 </r>
       <r>    0.1780    0.9999 </r>
       <r>    0.1977    0.9999 </r>
       <r>    0.2006    0.9999 </r>
       <r>    0.2220    0.9999 </r>
       <r>    0.2371    0.9998 </r>
       <r>    0.2975    0.9997 </r>
       <r>    0.3146    0.9997 </r>
       <r>    0.3403    0.9996 </r>
       <r>    0.3701    0.9994 </r>
       <r>    0.3768    0.9994 </r>
       <r>    0.3796    0.9994 </r>
       <r>    0.4429    0.9988 </r>
       <r>    0.4441    0.9988 </r>
       <r>    0.4519    0.9987 </r>
       <r>    0.4621    0.9986 </r>
       <r>    0.5101    0.9977 </r>
       <r>    0.5152    0.9976 </r>
       <r>    0.5326    0.9971 </r>
       <r>    0.5366    0.9970 </r>
       <r>    0.5477    0.9966 </r>
       <r>    0.5806    0.9953 </r>
       <r>    0.5985    0.9944 </r>
       <r>    0.6221    0.9929 </r>
       <r>    0.6237    0.9928 </r>
       <r>    0.6331    0.9921 </r>
       <r>    0.6437    0.9912 </r>
       <r>    0.7006    0.9846 </r>
       <r>    0.7069    0.9836 </r>
       <r>    0.7875    0.9641 </r>
       <r>    0.7914    0.9627 </r>
       <r>    0.8062    0.9570 </r>
       <r>    0.8150    0.9532 </r>
       <r>    0.8383    0.9417 </r>
       <r>    0.8468    0.9368 </r>
       <r>    0.8714    0.9206 </r>
       <r>    0.8793    0.9146 </r>
       <r>    0.9012    0.8959 </r>
       <r>    0.9099    0.8875 </r>
       <r>    0.9196    0.8774 </r>
       <r>    0.9407    0.8530 </r>
       <r>    0.9427    0.8504 </r>
       <r>    0.9723    0.8088 </r>
       <r>    1.0864    0.5745 </r>
       <r>    1.1643    0.3827 </r>
       <r>    1.1690    0.3717 </r>
       <r>    1.1872    0.3302 </r>
       <r>    1.2033    0.2956 </r>
       <r>    1.2039    0.2943 </r>
       <r>    1.2390    0.2270 </r>
       <r>    1.6988    0.0029 </r>
       <r>    1.8454    0.0007 </r>
       <r>    1.9152    0.0003 </r>
       <r>    1.9661    0.0002 </r>
       <r>    2.1221    0.0000 </r>
       <r>    2.1618    0.0000 </r>
       <r>    2.2479    0.0000 </r>
       <r>    3.9405    0.0000 </r>
       <r>    4.1419    0.0000 </r>
       <r>    4.1862    0.0000 </r>
       <r>    4.4378    0.0000 </r>
       <r>    4.5130    0.0000 </r>
       <r>    4.6459    0.0000 </r>
       <r>    5.3826    0.0000 </r>
       <r>    5.4190    0.0000 </r>
       <r>    5.8793    0.0000 </r>
       <r>    5.9013    0.0000 </r>
       <r>    6.2226    0.0000 </r>
       <r>    6.2901    0.0000 </r>
       <r>    6.3264    0.0000 </r>
       <r>    6.4505    0.0000 </r>
       <r>    6.5416    0.0000 </r>
       <r>    6.6239    0.0000 </r>
       <r>    6.8071    0.0000 </r>
      </set>
      <set comment="kpoint 2">
       <r>   -8.1600    1.0000 </r>
       <r>   -7.0351    1.0000 </r>
       <r>   -6.2819    1.0000 </r>
       <r>   -5.8356    1.0000 </r>
       <r>   -5.7206    1.0000 </r>
       <r>   -5.7157    1.0000 </r>
       <r>   -5.6428    1.0000 </r>
       <r>   -5.5671    1.0000 </r>
       <r>   -5.5618    1.0000 </r>
       <r>   -5.5276    1.0000 </r>
       <r>   -5.2767    1.0000 </r>
       <r>   -5.0844    1.0000 </r>
       <r>   -5.0796    1.0000 </r>
       <r>   -5.0585    1.0000 </r>
       <r>   -5.0496    1.0000 </r>
       <r>   -5.0481    1.0000 </r>
       <r>   -4.9423    1.0000 </r>
       <r>   -4.5981    1.0000 </r>
       <r>   -4.5829    1.0000 </r>
       <r>   -4.5595    1.0000 </r>
       <r>   -4.5447    1.0000 </r>
       <r>   -4.5399    1.0000 </r>
       <r>   -4.4789    1.0000 </r>
       <r>   -4.4253    1.0000 </r>
       <r>   -4.3857    1.0000 </r>
       <r>   -4.3305    1.0000 </r>
       <r>   -4.2647    1.0000 </r>
       <r>   -4.2431    1.0000 </r>
       <r>   -4.2026    1.0000 </r>
       <r>   -4.1764    1.0000 </r>
       <r>   -4.1741    1.0000 </r>
       <r>   -4.1555    1.0000 </r>
       <r>   -4.1347    1.0000 </r>
       <r>   -4.1059    1.0000 </r>
       <r>   -4.1053    1.0000 </r>
       <r>   -4.0669    1.0000 </r>
       <r>   -4.0393    1.0000 </r>
       <r>   -4.0099    1.0000 </r>
       <r>   -3.9293    1.0000 </r>
       <r>   -3.9290    1.0000 </r>
       <r>   -3.6387    1.0000 </r>
       <r>   -3.4879    1.0000 </r>
       <r>   -3.4848    1.0000 </r>
       <r>   -3.4547    1.0000 </r>
       <r>   -3.4463    1.0000 </r>
       <r>   -3.4348    1.0000 </r>
       <r>   -3.4192    1.0000 </r>
       <r>   -3.3683    1.0000 </r>
       <r>   -3.3295    1.0000 </r>
       <r>   -3.2878    1.0000 </r>
       <r>   -3.2014    1.0000 </r>
       <r>   -3.2010    1.0000 </r>
       <r>   -3.1191    1.0000 </r>
       <r>   -3.1141    1.0000 </r>
       <r>   -3.0760    1.0000 </r>
       <r>   -2.6261    1.0000 </r>
       <r>   -2.6176    1.0000 </r>
       <r>   -2.6108    1.0000 </r>
       <r>   -2.5917    1.0000 </r>
       <r>   -2.5683    1.0000 </r>
       <r>   -2.5437    1.0000 </r>
       <r>   -2.5124    1.0000 </r>
       <r>   -2.5059    1.0000 </r>
       <r>   -2.5057    1.0000 </r>
       <r>   -2.4900    1.0000 </r>
       <r>   -2.4466    1.0000 </r>
       <r>   -2.4339    1.0000 </r>
       <r>   -2.3836    1.0000 </r>
       <r>   -2.3830    1.0000 </r>
       <r>   -2.3722    1.0000 </r>
       <r>   -2.3577    1.0000 </r>
       <r>   -2.3383    1.0000 </r>
       <r>   -2.2808    1.0000 </r>
       <r>   -2.2764    1.0000 </r>
       <r>   -2.2607    1.0000 </r>
       <r>   -2.2411    1.0000 </r>
       <r>   -2.2068    1.0000 </r>
       <r>   -2.1650    1.0000 </r>
       <r>   -2.1646    1.0000 </r>
       <r>   -2.0983    1.0000 </r>
       <r>   -2.0952    1.0000 </r>
       <r>   -2.0809    1.0000 </r>
       <r>   -2.0618    1.0000 </r>
       <r>   -1.9708    1.0000 </r>
       <r>   -1.9386    1.0000 </r>
       <r>   -1.9367    1.0000 </r>
       <r>   -1.9118    1.0000 </r>
       <r>   -1.8923    1.0000 </r>
       <r>   -1.8814    1.0000 </r>
       <r>   -1.8749    1.0000 </r>
       <r>   -1.8473    1.0000 </r>
       <r>   -1.8209    1.0000 </r>
       <r>   -1.8009    1.0000 </r>
       <r>   -1.7633    1.0000 </r>
       <r>   -1.7592    1.0000 </r>
       <r>   -1.7206    1.0000 </r>
       <r>   -1.7105    1.0000 </r>
       <r>   -1.6155    1.0000 </r>
       <r>   -1.6154    1.0000 </r>
       <r>   -1.5810    1.0000 </r>
       <r>   -1.5675    1.0000 </r>
       <r>   -1.5671    1.0000 </r>
       <r>   -1.5615    1.0000 </r>
       <r>   -1.5469    1.0000 </r>
       <r>   -1.5100    1.0000 </r>
       <r>   -1.4701    1.0000 </r>
       <r>   -1.4211    1.0000 </r>
       <r>   -1.3633    1.0000 </r>
       <r>   -1.2430    1.0000 </r>
       <r>   -1.2006    1.0000 </r>
       <r>   -1.1629    1.0000 </r>
       <r>   -1.0748    1.0000 </r>
       <r>   -1.0476    1.0000 </r>
       <r>   -0.9637    1.0000 </r>
       <r>   -0.9534    1.0000 </r>
       <r>   -0.9436    1.0000 </r>
       <r>   -0.9331    1.0000 </r>
       <r>   -0.9146    1.0000 </r>
       <r>   -0.8948    1.0000 </r>
       <r>   -0.8672    1.0000 </r>
       <r>   -0.8206    1.0000 </r>
       <r>   -0.8087    1.0000 </r>
       <r>   -0.8084    1.0000 </r>
       <r>   -0.6360    1.0000 </r>
       <r>   -0.5650    1.0000 </r>
       <r>   -0.5622    1.0000 </r>
       <r>   -0.4570    1.0000 </r>
       <r>   -0.4490    1.0000 </r>
       <r>   -0.4099    1.0000 </r>
       <r>   -0.4039    1.0000 </r>
       <r>   -0.3913    1.0000 </r>
       <r>   -0.3905    1.0000 </r>
       <r>   -0.3713    1.0000 </r>
       <r>   -0.2943    1.0000 </r>
       <r>   -0.2691    1.0000 </r>
       <r>   -0.2688    1.0000 </r>
       <r>   -0.2589    1.0000 </r>
       <r>   -0.1309    1.0000 </r>
       <r>   -0.1270    1.0000 </r>
       <r>   -0.0775    1.0000 </r>
       <r>   -0.0700    1.0000 </r>
       <r>   -0.0566    1.0000 </r>
       <r>   -0.0387    1.0000 </r>
       <r>    0.0107    1.0000 </r>
       <r>    0.0473    1.0000 </r>
       <r>    0.1202    1.0000 </r>
       <r>    0.1703    0.9999 </r>
       <r>    0.1785    0.9999 </r>
       <r>    0.1981    0.9999 </r>
       <r>    0.2000    0.9999 </r>
       <r>    0.2220    0.9999 </r>
       <r>    0.2372    0.9998 </r>
       <r>    0.2976    0.9997 </r>
       <r>    0.3149    0.9997 </r>
       <r>    0.3402    0.9996 </r>
       <r>    0.3700    0.9994 </r>
       <r>    0.3768    0.9994 </r>
       <r>    0.3797    0.9994 </r>
       <r>    0.4422    0.9988 </r>
       <r>    0.4444    0.9988 </r>
       <r>    0.4517    0.9987 </r>
       <r>    0.4627    0.9986 </r>
       <r>    0.5101    0.9977 </r>
       <r>    0.5152    0.9976 </r>
       <r>    0.5327    0.9971 </r>
       <r>    0.5366    0.9970 </r>
       <r>    0.5475    0.9966 </r>
       <r>    0.5808    0.9953 </r>
       <r>    0.5982    0.9944 </r>
       <r>    0.6220    0.9929 </r>
       <r>    0.6238    0.9928 </r>
       <r>    0.6330    0.9921 </r>
       <r>    0.6438    0.9912 </r>
       <r>    0.7007    0.9846 </r>
       <r>    0.7067    0.9837 </r>
       <r>    0.7874    0.9641 </r>
       <r>    0.7914    0.9627 </r>
       <r>    0.8063    0.9570 </r>
       <r>    0.8147    0.9534 </r>
       <r>    0.8385    0.9416 </r>
       <r>    0.8468    0.9368 </r>
       <r>    0.8714    0.9206 </r>
       <r>    0.8793    0.9146 </r>
       <r>    0.9014    0.8957 </r>
       <r>    0.9100    0.8875 </r>
       <r>    0.9195    0.8775 </r>
       <r>    0.9406    0.8531 </r>
       <r>    0.9426    0.8505 </r>
       <r>    0.9726    0.8082 </r>
       <r>    1.0859    0.5757 </r>
       <r>    1.1643    0.3827 </r>
       <r>    1.1691    0.3713 </r>
       <r>    1.1871    0.3304 </r>
       <r>    1.2032    0.2957 </r>
       <r>    1.2039    0.2944 </r>
       <r>    1.2389    0.2271 </r>
       <r>    1.6991    0.0029 </r>
       <r>    1.8451    0.0007 </r>
       <r>    1.9152    0.0003 </r>
       <r>    1.9660    0.0002 </r>
       <r>    2.1220    0.0000 </r>
       <r>    2.1620    0.0000 </r>
       <r>    2.2480    0.0000 </r>
       <r>    3.9413    0.0000 </r>
       <r>    4.1408    0.0000 </r>
       <r>    4.1862    0.0000 </r>
       <r>    4.4374    0.0000 </r>
       <r>    4.5129    0.0000 </r>
       <r>    4.6466    0.0000 </r>
       <r>    5.3827    0.0000 </r>
       <r>    5.4191    0.0000 </r>
       <r>    5.8795    0.0000 </r>
       <r>    5.9005    0.0000 </r>
       <r>    6.2238    0.0000 </r>
       <r>    6.2918    0.0000 </r>
       <r>    6.3326    0.0000 </r>
       <r>    6.5006    0.0000 </r>
       <r>    6.5479    0.0000 </r>
       <r>    6.6249    0.0000 </r>
       <r>    6.8627    0.0000 </r>
      </set>
      <set comment="kpoint 3">
       <r>   -8.1600    1.0000 </r>
       <r>   -7.0351    1.0000 </r>
       <r>   -6.2819    1.0000 </r>
       <r>   -5.8356    1.0000 </r>
       <r>   -5.7206    1.0000 </r>
       <r>   -5.7156    1.0000 </r>
       <r>   -5.6428    1.0000 </r>
       <r>   -5.5668    1.0000 </r>
       <r>   -5.5618    1.0000 </r>
       <r>   -5.5279    1.0000 </r>
       <r>   -5.2769    1.0000 </r>
       <r>   -5.0840    1.0000 </r>
       <r>   -5.0796    1.0000 </r>
       <r>   -5.0585    1.0000 </r>
       <r>   -5.0496    1.0000 </r>
       <r>   -5.0482    1.0000 </r>
       <r>   -4.9425    1.0000 </r>
       <r>   -4.5980    1.0000 </r>
       <r>   -4.5828    1.0000 </r>
       <r>   -4.5596    1.0000 </r>
       <r>   -4.5448    1.0000 </r>
       <r>   -4.5398    1.0000 </r>
       <r>   -4.4790    1.0000 </r>
       <r>   -4.4251    1.0000 </r>
       <r>   -4.3859    1.0000 </r>
       <r>   -4.3304    1.0000 </r>
       <r>   -4.2649    1.0000 </r>
       <r>   -4.2433    1.0000 </r>
       <r>   -4.2027    1.0000 </r>
       <r>   -4.1763    1.0000 </r>
       <r>   -4.1744    1.0000 </r>
       <r>   -4.1552    1.0000 </r>
       <r>   -4.1348    1.0000 </r>
       <r>   -4.1056    1.0000 </r>
       <r>   -4.1052    1.0000 </r>
       <r>   -4.0669    1.0000 </r>
       <r>   -4.0391    1.0000 </r>
       <r>   -4.0101    1.0000 </r>
       <r>   -3.9293    1.0000 </r>
       <r>   -3.9291    1.0000 </r>
       <r>   -3.6386    1.0000 </r>
       <r>   -3.4879    1.0000 </r>
       <r>   -3.4847    1.0000 </r>
       <r>   -3.4547    1.0000 </r>
       <r>   -3.4464    1.0000 </r>
       <r>   -3.4347    1.0000 </r>
       <r>   -3.4193    1.0000 </r>
       <r>   -3.3682    1.0000 </r>
       <r>   -3.3295    1.0000 </r>
       <r>   -3.2879    1.0000 </r>
       <r>   -3.2014    1.0000 </r>
       <r>   -3.2009    1.0000 </r>
       <r>   -3.1191    1.0000 </r>
       <r>   -3.1143    1.0000 </r>
       <r>   -3.0758    1.0000 </r>
       <r>   -2.6258    1.0000 </r>
       <r>   -2.6177    1.0000 </r>
       <r>   -2.6108    1.0000 </r>
       <r>   -2.5918    1.0000 </r>
       <r>   -2.5684    1.0000 </r>
       <r>   -2.5435    1.0000 </r>
       <r>   -2.5123    1.0000 </r>
       <r>   -2.5062    1.0000 </r>
       <r>   -2.5056    1.0000 </r>
       <r>   -2.4899    1.0000 </r>
       <r>   -2.4469    1.0000 </r>
       <r>   -2.4339    1.0000 </r>
       <r>   -2.3837    1.0000 </r>
       <r>   -2.3827    1.0000 </r>
       <r>   -2.3722    1.0000 </r>
       <r>   -2.3578    1.0000 </r>
       <r>   -2.3382    1.0000 </r>
       <r>   -2.2809    1.0000 </r>
       <r>   -2.2762    1.0000 </r>
       <r>   -2.2603    1.0000 </r>
       <r>   -2.2412    1.0000 </r>
       <r>   -2.2068    1.0000 </r>
       <r>   -2.1657    1.0000 </r>
       <r>   -2.1651    1.0000 </r>
       <r>   -2.0981    1.0000 </r>
       <r>   -2.0952    1.0000 </r>
       <r>   -2.0810    1.0000 </r>
       <r>   -2.0612    1.0000 </r>
       <r>   -1.9713    1.0000 </r>
       <r>   -1.9381    1.0000 </r>
       <r>   -1.9365    1.0000 </r>
       <r>   -1.9118    1.0000 </r>
       <r>   -1.8925    1.0000 </r>
       <r>   -1.8814    1.0000 </r>
       <r>   -1.8746    1.0000 </r>
       <r>   -1.8476    1.0000 </r>
       <r>   -1.8210    1.0000 </r>
       <r>   -1.8011    1.0000 </r>
       <r>   -1.7632    1.0000 </r>
       <r>   -1.7590    1.0000 </r>
       <r>   -1.7207    1.0000 </r>
       <r>   -1.7105    1.0000 </r>
       <r>   -1.6157    1.0000 </r>
       <r>   -1.6149    1.0000 </r>
       <r>   -1.5809    1.0000 </r>
       <r>   -1.5675    1.0000 </r>
       <r>   -1.5672    1.0000 </r>
       <r>   -1.5618    1.0000 </r>
       <r>   -1.5469    1.0000 </r>
       <r>   -1.5102    1.0000 </r>
       <r>   -1.4707    1.0000 </r>
       <r>   -1.4206    1.0000 </r>
       <r>   -1.3628    1.0000 </r>
       <r>   -1.2432    1.0000 </r>
       <r>   -1.2006    1.0000 </r>
       <r>   -1.1630    1.0000 </r>
       <r>   -1.0750    1.0000 </r>
       <r>   -1.0475    1.0000 </r>
       <r>   -0.9642    1.0000 </r>
       <r>   -0.9530    1.0000 </r>
       <r>   -0.9437    1.0000 </r>
       <r>   -0.9332    1.0000 </r>
       <r>   -0.9145    1.0000 </r>
       <r>   -0.8949    1.0000 </r>
       <r>   -0.8672    1.0000 </r>
       <r>   -0.8209    1.0000 </r>
       <r>   -0.8089    1.0000 </r>
       <r>   -0.8083    1.0000 </r>
       <r>   -0.6357    1.0000 </r>
       <r>   -0.5650    1.0000 </r>
       <r>   -0.5624    1.0000 </r>
       <r>   -0.4571    1.0000 </r>
       <r>   -0.4490    1.0000 </r>
       <r>   -0.4093    1.0000 </r>
       <r>   -0.4045    1.0000 </r>
       <r>   -0.3913    1.0000 </r>
       <r>   -0.3903    1.0000 </r>
       <r>   -0.3713    1.0000 </r>
       <r>   -0.2939    1.0000 </r>
       <r>   -0.2693    1.0000 </r>
       <r>   -0.2688    1.0000 </r>
       <r>   -0.2591    1.0000 </r>
       <r>   -0.1308    1.0000 </r>
       <r>   -0.1267    1.0000 </r>
       <r>   -0.0771    1.0000 </r>
       <r>   -0.0705    1.0000 </r>
       <r>   -0.0573    1.0000 </r>
       <r>   -0.0381    1.0000 </r>
       <r>    0.0107    1.0000 </r>
       <r>    0.0474    1.0000 </r>
       <r>    0.1201    1.0000 </r>
       <r>    0.1704    0.9999 </r>
       <r>    0.1780    0.9999 </r>
       <r>    0.1977    0.9999 </r>
       <r>    0.2006    0.9999 </r>
       <r>    0.2220    0.9999 </r>
       <r>    0.2372    0.9998 </r>
       <r>    0.2975    0.9997 </r>
       <r>    0.3145    0.9997 </r>
       <r>    0.3402    0.9996 </r>
       <r>    0.3702    0.9994 </r>
       <r>    0.3768    0.9994 </r>
       <r>    0.3797    0.9994 </r>
       <r>    0.4429    0.9988 </r>
       <r>    0.4440    0.9988 </r>
       <r>    0.4519    0.9987 </r>
       <r>    0.4620    0.9986 </r>
       <r>    0.5101    0.9977 </r>
       <r>    0.5152    0.9976 </r>
       <r>    0.5326    0.9971 </r>
       <r>    0.5366    0.9970 </r>
       <r>    0.5477    0.9966 </r>
       <r>    0.5806    0.9953 </r>
       <r>    0.5986    0.9944 </r>
       <r>    0.6222    0.9929 </r>
       <r>    0.6237    0.9928 </r>
       <r>    0.6331    0.9921 </r>
       <r>    0.6437    0.9912 </r>
       <r>    0.7006    0.9846 </r>
       <r>    0.7069    0.9836 </r>
       <r>    0.7875    0.9641 </r>
       <r>    0.7915    0.9627 </r>
       <r>    0.8062    0.9570 </r>
       <r>    0.8150    0.9532 </r>
       <r>    0.8383    0.9417 </r>
       <r>    0.8468    0.9368 </r>
       <r>    0.8714    0.9206 </r>
       <r>    0.8793    0.9146 </r>
       <r>    0.9012    0.8959 </r>
       <r>    0.9099    0.8875 </r>
       <r>    0.9196    0.8774 </r>
       <r>    0.9407    0.8529 </r>
       <r>    0.9427    0.8504 </r>
       <r>    0.9723    0.8087 </r>
       <r>    1.0864    0.5746 </r>
       <r>    1.1643    0.3826 </r>
       <r>    1.1690    0.3717 </r>
       <r>    1.1872    0.3302 </r>
       <r>    1.2033    0.2956 </r>
       <r>    1.2039    0.2943 </r>
       <r>    1.2390    0.2270 </r>
       <r>    1.6988    0.0029 </r>
       <r>    1.8454    0.0007 </r>
       <r>    1.9152    0.0003 </r>
       <r>    1.9661    0.0002 </r>
       <r>    2.1222    0.0000 </r>
       <r>    2.1618    0.0000 </r>
       <r>    2.2478    0.0000 </r>
       <r>    3.9405    0.0000 </r>
       <r>    4.1420    0.0000 </r>
       <r>    4.1862    0.0000 </r>
       <r>    4.4378    0.0000 </r>
       <r>    4.5130    0.0000 </r>
       <r>    4.6458    0.0000 </r>
       <r>    5.3826    0.0000 </r>
       <r>    5.4190    0.0000 </r>
       <r>    5.8793    0.0000 </r>
       <r>    5.9014    0.0000 </r>
       <r>    6.2227    0.0000 </r>
       <r>    6.2895    0.0000 </r>
       <r>    6.3254    0.0000 </r>
       <r>    6.4415    0.0000 </r>
       <r>    6.5275    0.0000 </r>
       <r>    6.5573    0.0000 </r>
       <r>    6.6294    0.0000 </r>
      </set>
      <set comment="kpoint 4">
       <r>   -8.0039    1.0000 </r>
       <r>   -6.9100    1.0000 </r>
       <r>   -6.2772    1.0000 </r>
       <r>   -6.1373    1.0000 </r>
       <r>   -5.9860    1.0000 </r>
       <r>   -5.5721    1.0000 </r>
       <r>   -5.4941    1.0000 </r>
       <r>   -5.4264    1.0000 </r>
       <r>   -5.4110    1.0000 </r>
       <r>   -5.3848    1.0000 </r>
       <r>   -5.2868    1.0000 </r>
       <r>   -5.1555    1.0000 </r>
       <r>   -5.1258    1.0000 </r>
       <r>   -5.0528    1.0000 </r>
       <r>   -4.9958    1.0000 </r>
       <r>   -4.9128    1.0000 </r>
       <r>   -4.8676    1.0000 </r>
       <r>   -4.6526    1.0000 </r>
       <r>   -4.5906    1.0000 </r>
       <r>   -4.5121    1.0000 </r>
       <r>   -4.4994    1.0000 </r>
       <r>   -4.4707    1.0000 </r>
       <r>   -4.4480    1.0000 </r>
       <r>   -4.4307    1.0000 </r>
       <r>   -4.3957    1.0000 </r>
       <r>   -4.3628    1.0000 </r>
       <r>   -4.3258    1.0000 </r>
       <r>   -4.3100    1.0000 </r>
       <r>   -4.2882    1.0000 </r>
       <r>   -4.2396    1.0000 </r>
       <r>   -4.2247    1.0000 </r>
       <r>   -4.1854    1.0000 </r>
       <r>   -4.1569    1.0000 </r>
       <r>   -4.1021    1.0000 </r>
       <r>   -4.0051    1.0000 </r>
       <r>   -3.9119    1.0000 </r>
       <r>   -3.9056    1.0000 </r>
       <r>   -3.8819    1.0000 </r>
       <r>   -3.8522    1.0000 </r>
       <r>   -3.8093    1.0000 </r>
       <r>   -3.6503    1.0000 </r>
       <r>   -3.6115    1.0000 </r>
       <r>   -3.5523    1.0000 </r>
       <r>   -3.5316    1.0000 </r>
       <r>   -3.5123    1.0000 </r>
       <r>   -3.4644    1.0000 </r>
       <r>   -3.4395    1.0000 </r>
       <r>   -3.3612    1.0000 </r>
       <r>   -3.2717    1.0000 </r>
       <r>   -3.2465    1.0000 </r>
       <r>   -3.1985    1.0000 </r>
       <r>   -3.1645    1.0000 </r>
       <r>   -3.1456    1.0000 </r>
       <r>   -3.1236    1.0000 </r>
       <r>   -3.0266    1.0000 </r>
       <r>   -2.9314    1.0000 </r>
       <r>   -2.9219    1.0000 </r>
       <r>   -2.7202    1.0000 </r>
       <r>   -2.7059    1.0000 </r>
       <r>   -2.6981    1.0000 </r>
       <r>   -2.6647    1.0000 </r>
       <r>   -2.6337    1.0000 </r>
       <r>   -2.6221    1.0000 </r>
       <r>   -2.5624    1.0000 </r>
       <r>   -2.5607    1.0000 </r>
       <r>   -2.5156    1.0000 </r>
       <r>   -2.4657    1.0000 </r>
       <r>   -2.4526    1.0000 </r>
       <r>   -2.4333    1.0000 </r>
       <r>   -2.4152    1.0000 </r>
       <r>   -2.3899    1.0000 </r>
       <r>   -2.3757    1.0000 </r>
       <r>   -2.3311    1.0000 </r>
       <r>   -2.3166    1.0000 </r>
       <r>   -2.2239    1.0000 </r>
       <r>   -2.1895    1.0000 </r>
       <r>   -2.1555    1.0000 </r>
       <r>   -2.1203    1.0000 </r>
       <r>   -2.1171    1.0000 </r>
       <r>   -2.1096    1.0000 </r>
       <r>   -2.0887    1.0000 </r>
       <r>   -2.0641    1.0000 </r>
       <r>   -2.0448    1.0000 </r>
       <r>   -1.9986    1.0000 </r>
       <r>   -1.9789    1.0000 </r>
       <r>   -1.9682    1.0000 </r>
       <r>   -1.9197    1.0000 </r>
       <r>   -1.9017    1.0000 </r>
       <r>   -1.8912    1.0000 </r>
       <r>   -1.8869    1.0000 </r>
       <r>   -1.8656    1.0000 </r>
       <r>   -1.8442    1.0000 </r>
       <r>   -1.8139    1.0000 </r>
       <r>   -1.8091    1.0000 </r>
       <r>   -1.7730    1.0000 </r>
       <r>   -1.7620    1.0000 </r>
       <r>   -1.7488    1.0000 </r>
       <r>   -1.6931    1.0000 </r>
       <r>   -1.6534    1.0000 </r>
       <r>   -1.6388    1.0000 </r>
       <r>   -1.6239    1.0000 </r>
       <r>   -1.6062    1.0000 </r>
       <r>   -1.5708    1.0000 </r>
       <r>   -1.5659    1.0000 </r>
       <r>   -1.5221    1.0000 </r>
       <r>   -1.4864    1.0000 </r>
       <r>   -1.4597    1.0000 </r>
       <r>   -1.4446    1.0000 </r>
       <r>   -1.4022    1.0000 </r>
       <r>   -1.3606    1.0000 </r>
       <r>   -1.3410    1.0000 </r>
       <r>   -1.2496    1.0000 </r>
       <r>   -1.2251    1.0000 </r>
       <r>   -1.2012    1.0000 </r>
       <r>   -1.0536    1.0000 </r>
       <r>   -1.0044    1.0000 </r>
       <r>   -0.9547    1.0000 </r>
       <r>   -0.9442    1.0000 </r>
       <r>   -0.9263    1.0000 </r>
       <r>   -0.9127    1.0000 </r>
       <r>   -0.8821    1.0000 </r>
       <r>   -0.8522    1.0000 </r>
       <r>   -0.8014    1.0000 </r>
       <r>   -0.7286    1.0000 </r>
       <r>   -0.6876    1.0000 </r>
       <r>   -0.6355    1.0000 </r>
       <r>   -0.5196    1.0000 </r>
       <r>   -0.5026    1.0000 </r>
       <r>   -0.4853    1.0000 </r>
       <r>   -0.4675    1.0000 </r>
       <r>   -0.4529    1.0000 </r>
       <r>   -0.4187    1.0000 </r>
       <r>   -0.3830    1.0000 </r>
       <r>   -0.3456    1.0000 </r>
       <r>   -0.3116    1.0000 </r>
       <r>   -0.2469    1.0000 </r>
       <r>   -0.2038    1.0000 </r>
       <r>   -0.1538    1.0000 </r>
       <r>   -0.1478    1.0000 </r>
       <r>   -0.1378    1.0000 </r>
       <r>   -0.1136    1.0000 </r>
       <r>   -0.0870    1.0000 </r>
       <r>   -0.0552    1.0000 </r>
       <r>   -0.0179    1.0000 </r>
       <r>   -0.0036    1.0000 </r>
       <r>    0.0085    1.0000 </r>
       <r>    0.0165    1.0000 </r>
       <r>    0.0624    1.0000 </r>
       <r>    0.0950    1.0000 </r>
       <r>    0.1087    1.0000 </r>
       <r>    0.1325    0.9999 </r>
       <r>    0.1760    0.9999 </r>
       <r>    0.2040    0.9999 </r>
       <r>    0.2189    0.9999 </r>
       <r>    0.2545    0.9998 </r>
       <r>    0.2902    0.9997 </r>
       <r>    0.3690    0.9994 </r>
       <r>    0.4208    0.9990 </r>
       <r>    0.4389    0.9989 </r>
       <r>    0.4591    0.9986 </r>
       <r>    0.5052    0.9978 </r>
       <r>    0.5636    0.9960 </r>
       <r>    0.5756    0.9955 </r>
       <r>    0.5915    0.9948 </r>
       <r>    0.6240    0.9928 </r>
       <r>    0.6617    0.9895 </r>
       <r>    0.6970    0.9851 </r>
       <r>    0.7148    0.9823 </r>
       <r>    0.7493    0.9752 </r>
       <r>    0.7986    0.9600 </r>
       <r>    0.8035    0.9581 </r>
       <r>    0.8260    0.9481 </r>
       <r>    0.8432    0.9389 </r>
       <r>    0.8511    0.9342 </r>
       <r>    0.8890    0.9068 </r>
       <r>    0.9022    0.8950 </r>
       <r>    0.9360    0.8587 </r>
       <r>    0.9520    0.8381 </r>
       <r>    0.9754    0.8038 </r>
       <r>    1.0175    0.7290 </r>
       <r>    1.0596    0.6385 </r>
       <r>    1.0673    0.6205 </r>
       <r>    1.0814    0.5868 </r>
       <r>    1.1006    0.5396 </r>
       <r>    1.1212    0.4881 </r>
       <r>    1.1381    0.4462 </r>
       <r>    1.1798    0.3469 </r>
       <r>    1.2035    0.2952 </r>
       <r>    1.2615    0.1900 </r>
       <r>    1.2957    0.1427 </r>
       <r>    1.3237    0.1118 </r>
       <r>    1.3390    0.0975 </r>
       <r>    1.4063    0.0522 </r>
       <r>    1.4559    0.0325 </r>
       <r>    1.5143    0.0184 </r>
       <r>    1.6159    0.0067 </r>
       <r>    1.6650    0.0041 </r>
       <r>    1.6877    0.0033 </r>
       <r>    2.1055    0.0001 </r>
       <r>    2.3848    0.0000 </r>
       <r>    2.5900    0.0000 </r>
       <r>    2.7416    0.0000 </r>
       <r>    2.7989    0.0000 </r>
       <r>    3.5645    0.0000 </r>
       <r>    3.7806    0.0000 </r>
       <r>    4.3094    0.0000 </r>
       <r>    4.4576    0.0000 </r>
       <r>    4.6558    0.0000 </r>
       <r>    4.9719    0.0000 </r>
       <r>    5.0473    0.0000 </r>
       <r>    5.1790    0.0000 </r>
       <r>    5.3354    0.0000 </r>
       <r>    5.5577    0.0000 </r>
       <r>    5.8811    0.0000 </r>
       <r>    6.0246    0.0000 </r>
       <r>    6.2809    0.0000 </r>
       <r>    6.4676    0.0000 </r>
       <r>    6.5810    0.0000 </r>
       <r>    6.6534    0.0000 </r>
       <r>    6.7171    0.0000 </r>
      </set>
      <set comment="kpoint 5">
       <r>   -8.0038    1.0000 </r>
       <r>   -6.9099    1.0000 </r>
       <r>   -6.2771    1.0000 </r>
       <r>   -6.1369    1.0000 </r>
       <r>   -5.9864    1.0000 </r>
       <r>   -5.5722    1.0000 </r>
       <r>   -5.4941    1.0000 </r>
       <r>   -5.4264    1.0000 </r>
       <r>   -5.4112    1.0000 </r>
       <r>   -5.3845    1.0000 </r>
       <r>   -5.2868    1.0000 </r>
       <r>   -5.1552    1.0000 </r>
       <r>   -5.1258    1.0000 </r>
       <r>   -5.0528    1.0000 </r>
       <r>   -4.9969    1.0000 </r>
       <r>   -4.9125    1.0000 </r>
       <r>   -4.8670    1.0000 </r>
       <r>   -4.6526    1.0000 </r>
       <r>   -4.5907    1.0000 </r>
       <r>   -4.5120    1.0000 </r>
       <r>   -4.4993    1.0000 </r>
       <r>   -4.4708    1.0000 </r>
       <r>   -4.4479    1.0000 </r>
       <r>   -4.4310    1.0000 </r>
       <r>   -4.3955    1.0000 </r>
       <r>   -4.3629    1.0000 </r>
       <r>   -4.3260    1.0000 </r>
       <r>   -4.3100    1.0000 </r>
       <r>   -4.2882    1.0000 </r>
       <r>   -4.2393    1.0000 </r>
       <r>   -4.2249    1.0000 </r>
       <r>   -4.1852    1.0000 </r>
       <r>   -4.1569    1.0000 </r>
       <r>   -4.1020    1.0000 </r>
       <r>   -4.0059    1.0000 </r>
       <r>   -3.9119    1.0000 </r>
       <r>   -3.9057    1.0000 </r>
       <r>   -3.8821    1.0000 </r>
       <r>   -3.8521    1.0000 </r>
       <r>   -3.8092    1.0000 </r>
       <r>   -3.6505    1.0000 </r>
       <r>   -3.6114    1.0000 </r>
       <r>   -3.5524    1.0000 </r>
       <r>   -3.5314    1.0000 </r>
       <r>   -3.5122    1.0000 </r>
       <r>   -3.4643    1.0000 </r>
       <r>   -3.4394    1.0000 </r>
       <r>   -3.3614    1.0000 </r>
       <r>   -3.2713    1.0000 </r>
       <r>   -3.2467    1.0000 </r>
       <r>   -3.1987    1.0000 </r>
       <r>   -3.1645    1.0000 </r>
       <r>   -3.1456    1.0000 </r>
       <r>   -3.1236    1.0000 </r>
       <r>   -3.0269    1.0000 </r>
       <r>   -2.9315    1.0000 </r>
       <r>   -2.9220    1.0000 </r>
       <r>   -2.7202    1.0000 </r>
       <r>   -2.7059    1.0000 </r>
       <r>   -2.6986    1.0000 </r>
       <r>   -2.6648    1.0000 </r>
       <r>   -2.6337    1.0000 </r>
       <r>   -2.6221    1.0000 </r>
       <r>   -2.5625    1.0000 </r>
       <r>   -2.5607    1.0000 </r>
       <r>   -2.5154    1.0000 </r>
       <r>   -2.4657    1.0000 </r>
       <r>   -2.4524    1.0000 </r>
       <r>   -2.4332    1.0000 </r>
       <r>   -2.4152    1.0000 </r>
[...]
       <r>    5.7260    0.0000 </r>
       <r>    5.7487    0.0000 </r>
       <r>    5.9492    0.0000 </r>
       <r>    5.9937    0.0000 </r>
       <r>    7.1625    0.0000 </r>
      </set>
     </set>
    </set>
   </array>
  </eigenvalues>
  <separator name="orbital magnetization" >
   <v name="MAGDIPOLOUT">      0.00000000      0.00000000      0.00000000</v>
  </separator>
  <dos>
   <i name="efermi">      1.11646034 </i>
   <total>
    <array>
     <dimension dim="1">gridpoints</dimension>
     <dimension dim="2">spin</dimension>
     <field>energy</field>
     <field>total</field>
     <field>integrated</field>
     <set>
      <set comment="spin 1">
       <r>    -9.1600     0.0000     0.0000 </r>
       <r>    -9.1022     0.0000     0.0000 </r>
       <r>    -9.0443     0.0000     0.0000 </r>
       <r>    -8.9865     0.0005     0.0000 </r>
       <r>    -8.9286     0.0009     0.0001 </r>
       <r>    -8.8708     0.0011     0.0001 </r>
       <r>    -8.8129     0.0031     0.0003 </r>
       <r>    -8.7551     0.0050     0.0006 </r>
       <r>    -8.6972     0.0091     0.0011 </r>
       <r>    -8.6394     0.0154     0.0020 </r>
       <r>    -8.5815     0.0274     0.0036 </r>
       <r>    -8.5237     0.0492     0.0065 </r>
       <r>    -8.4658     0.0862     0.0115 </r>
       <r>    -8.4080     0.1478     0.0200 </r>
       <r>    -8.3501     0.2485     0.0344 </r>
       <r>    -8.2923     0.4017     0.0576 </r>
       <r>    -8.2344     0.6164     0.0933 </r>
       <r>    -8.1766     0.8787     0.1441 </r>
       <r>    -8.1188     1.1596     0.2112 </r>
       <r>    -8.0609     1.4184     0.2932 </r>
       <r>    -8.0031     1.6259     0.3873 </r>
       <r>    -7.9452     1.7685     0.4896 </r>
       <r>    -7.8874     1.8529     0.5968 </r>
       <r>    -7.8295     1.9119     0.7074 </r>
       <r>    -7.7717     1.9717     0.8214 </r>
       <r>    -7.7138     2.0471     0.9398 </r>
       <r>    -7.6560     2.1069     1.0617 </r>
       <r>    -7.5981     2.1277     1.1848 </r>
       <r>    -7.5403     2.1123     1.3070 </r>
       <r>    -7.4824     2.1019     1.4286 </r>
       <r>    -7.4246     2.1295     1.5518 </r>
       <r>    -7.3667     2.2115     1.6797 </r>
       <r>    -7.3089     2.3555     1.8160 </r>
       <r>    -7.2510     2.5495     1.9635 </r>
       <r>    -7.1932     2.7737     2.1241 </r>
       <r>    -7.1354     3.0281     2.2993 </r>
       <r>    -7.0775     3.3343     2.4922 </r>
       <r>    -7.0197     3.6898     2.7057 </r>
       <r>    -6.9618     4.0736     2.9414 </r>
       <r>    -6.9040     4.4306     3.1977 </r>
       <r>    -6.8461     4.7339     3.4717 </r>
       <r>    -6.7883     4.9523     3.7582 </r>
       <r>    -6.7304     5.0841     4.0523 </r>
       <r>    -6.6726     5.1836     4.3522 </r>
       <r>    -6.6147     5.3005     4.6590 </r>
       <r>    -6.5569     5.4160     4.9723 </r>
       <r>    -6.4990     5.4666     5.2885 </r>
       <r>    -6.4412     5.4352     5.6031 </r>
       <r>    -6.3833     5.3858     5.9147 </r>
       <r>    -6.3255     5.4000     6.2272 </r>
       <r>    -6.2676     5.5590     6.5487 </r>
       <r>    -6.2098     5.9087     6.8907 </r>
       <r>    -6.1519     6.4175     7.2620 </r>
       <r>    -6.0941     6.9853     7.6662 </r>
       <r>    -6.0363     7.4655     8.0982 </r>
       <r>    -5.9784     7.7502     8.5467 </r>
       <r>    -5.9206     7.8065     8.9985 </r>
       <r>    -5.8627     7.7642     9.4476 </r>
       <r>    -5.8049     7.8640     9.9027 </r>
       <r>    -5.7470     8.3539    10.3863 </r>
       <r>    -5.6892     9.3939    10.9298 </r>
       <r>    -5.6313    10.9758    11.5649 </r>
       <r>    -5.5735    12.9381    12.3134 </r>
       <r>    -5.5156    15.0671    13.1851 </r>
       <r>    -5.4578    17.2301    14.1820 </r>
       <r>    -5.3999    19.3624    15.3021 </r>
       <r>    -5.3421    21.4092    16.5406 </r>
       <r>    -5.2842    23.3345    17.8908 </r>
       <r>    -5.2264    25.1944    19.3482 </r>
       <r>    -5.1685    26.9923    20.9102 </r>
       <r>    -5.1107    28.6569    22.5681 </r>
       <r>    -5.0529    30.0619    24.3072 </r>
       <r>    -4.9950    31.1341    26.1084 </r>
       <r>    -4.9372    31.9984    27.9595 </r>
       <r>    -4.8793    32.9230    29.8641 </r>
       <r>    -4.8215    34.2010    31.8428 </r>
       <r>    -4.7636    35.9890    33.9251 </r>
       <r>    -4.7058    38.3061    36.1415 </r>
       <r>    -4.6479    41.0581    38.5168 </r>
       <r>    -4.5901    44.0178    41.0638 </r>
       <r>    -4.5322    46.7754    43.7703 </r>
       <r>    -4.4744    48.8552    46.5968 </r>
       <r>    -4.4165    49.9734    49.4885 </r>
       <r>    -4.3587    50.1919    52.3925 </r>
       <r>    -4.3008    49.7439    55.2708 </r>
       <r>    -4.2430    48.8754    58.0993 </r>
       <r>    -4.1851    47.7278    60.8610 </r>
       <r>    -4.1273    46.2279    63.5358 </r>
       <r>    -4.0695    44.2637    66.0969 </r>
       <r>    -4.0116    41.8943    68.5214 </r>
       <r>    -3.9538    39.4315    70.8035 </r>
       <r>    -3.8959    37.2540    72.9594 </r>
       <r>    -3.8381    35.6931    75.0251 </r>
       <r>    -3.7802    35.0776    77.0555 </r>
       <r>    -3.7224    35.6981    79.1218 </r>
       <r>    -3.6645    37.5659    81.2968 </r>
       <r>    -3.6067    40.2435    83.6259 </r>
       <r>    -3.5488    42.9193    86.1102 </r>
       <r>    -3.4910    44.8708    88.7072 </r>
       <r>    -3.4331    45.8451    91.3606 </r>
       <r>    -3.3753    46.1654    94.0321 </r>
       <r>    -3.3174    46.4337    96.7197 </r>
       <r>    -3.2596    47.0645    99.4434 </r>
       <r>    -3.2017    47.9540   102.2188 </r>
       <r>    -3.1439    48.6322   105.0327 </r>
       <r>    -3.0861    48.6096   107.8455 </r>
       <r>    -3.0282    47.7737   110.6100 </r>
       <r>    -2.9704    46.3901   113.2944 </r>
       <r>    -2.9125    44.9931   115.8977 </r>
       <r>    -2.8547    44.2331   118.4570 </r>
       <r>    -2.7968    44.7041   121.0444 </r>
       <r>    -2.7390    46.5089   123.7362 </r>
       <r>    -2.6811    49.2592   126.5873 </r>
       <r>    -2.6233    52.4870   129.6247 </r>
       <r>    -2.5654    55.9218   132.8606 </r>
       <r>    -2.5076    59.3677   136.2958 </r>
       <r>    -2.4497    62.4376   139.9086 </r>
       <r>    -2.3919    64.7167   143.6538 </r>
       <r>    -2.3340    66.2688   147.4887 </r>
       <r>    -2.2762    67.6730   151.4047 </r>
       <r>    -2.2183    69.5379   155.4288 </r>
       <r>    -2.1605    72.0026   159.5950 </r>
       <r>    -2.1026    74.5946   163.9114 </r>
       <r>    -2.0448    76.7160   168.3501 </r>
       <r>    -1.9870    78.1478   172.8714 </r>
       <r>    -1.9291    79.0270   177.4442 </r>
       <r>    -1.8713    79.4812   182.0434 </r>
       <r>    -1.8134    79.5475   186.6466 </r>
       <r>    -1.7556    79.1521   191.2264 </r>
       <r>    -1.6977    77.8696   195.7325 </r>
       <r>    -1.6399    75.1750   200.0834 </r>
       <r>    -1.5820    70.9155   204.1878 </r>
       <r>    -1.5242    65.5591   207.9816 </r>
       <r>    -1.4663    59.9288   211.4500 </r>
       <r>    -1.4085    54.7266   214.6171 </r>
       <r>    -1.3506    50.3231   217.5302 </r>
       <r>    -1.2928    47.0434   220.2542 </r>
       <r>    -1.2349    45.3114   222.8775 </r>
       <r>    -1.1771    45.4818   225.5103 </r>
       <r>    -1.1192    47.6745   228.2706 </r>
       <r>    -1.0614    51.5698   231.2562 </r>
       <r>    -1.0036    56.2682   234.5125 </r>
       <r>    -0.9457    60.3472   238.0062 </r>
       <r>    -0.8879    62.4123   241.6185 </r>
       <r>    -0.8300    61.7654   245.1942 </r>
       <r>    -0.7722    58.9289   248.6047 </r>
       <r>    -0.7143    55.2616   251.8032 </r>
       <r>    -0.6565    52.0901   254.8176 </r>
       <r>    -0.5986    50.0563   257.7150 </r>
       <r>    -0.5408    49.1487   260.5592 </r>
       <r>    -0.4829    49.1274   263.4021 </r>
       <r>    -0.4251    49.8642   266.2876 </r>
       <r>    -0.3672    51.3315   269.2578 </r>
       <r>    -0.3094    53.4687   272.3517 </r>
       <r>    -0.2515    56.1285   275.5997 </r>
       <r>    -0.1937    58.9932   279.0139 </r>
       <r>    -0.1358    61.7333   282.5872 </r>
       <r>    -0.0780    64.0578   286.2953 </r>
       <r>    -0.0202    65.6466   290.0949 </r>
       <r>     0.0377    66.0585   293.9175 </r>
       <r>     0.0955    65.0424   297.6811 </r>
       <r>     0.1534    62.7173   301.3100 </r>
       <r>     0.2112    59.6051   304.7594 </r>
       <r>     0.2691    56.5220   308.0301 </r>
       <r>     0.3269    54.2877   311.1718 </r>
       <r>     0.3848    53.3495   314.2589 </r>
       <r>     0.4426    53.4893   317.3546 </r>
       <r>     0.5005    54.2341   320.4931 </r>
       <r>     0.5583    55.1914   323.6872 </r>
       <r>     0.6162    56.3729   326.9502 </r>
       <r>     0.6740    58.2358   330.3204 </r>
       <r>     0.7319    61.1753   333.8607 </r>
       <r>     0.7897    65.0382   337.6252 </r>
       <r>     0.8476    68.9934   341.6184 </r>
       <r>     0.9054    72.0333   345.7870 </r>
       <r>     0.9632    73.5321   350.0425 </r>
       <r>     1.0211    73.3281   354.2861 </r>
       <r>     1.0789    71.4675   358.4211 </r>
       <r>     1.1368    68.0097   362.3563 </r>
       <r>     1.1946    63.2076   366.0140 </r>
       <r>     1.2525    57.6505   369.3506 </r>
       <r>     1.3103    51.9489   372.3570 </r>
       <r>     1.3682    46.2317   375.0330 </r>
       <r>     1.4260    40.2878   377.3653 </r>
       <r>     1.4839    34.2210   379.3457 </r>
       <r>     1.5417    28.6189   381.0024 </r>
       <r>     1.5996    24.0540   382.3957 </r>
       <r>     1.6574    20.6750   383.5942 </r>
       <r>     1.7153    18.2296   384.6504 </r>
       <r>     1.7731    16.3567   385.5993 </r>
       <r>     1.8310    14.8531   386.4600 </r>
       <r>     1.8888    13.6084   387.2495 </r>
       <r>     1.9467    12.6347   387.9829 </r>
       <r>     2.0045    12.0160   388.6798 </r>
       <r>     2.0623    11.7927   389.3629 </r>
       <r>     2.1202    11.8021   390.0467 </r>
       <r>     2.1780    11.7620   390.7289 </r>
       <r>     2.2359    11.5064   391.3957 </r>
       <r>     2.2937    11.0923   392.0377 </r>
       <r>     2.3516    10.6765   392.6558 </r>
       <r>     2.4094    10.4077   393.2581 </r>
       <r>     2.4673    10.3388   393.8567 </r>
       <r>     2.5251    10.5015   394.4647 </r>
       <r>     2.5830    10.8704   395.0939 </r>
       <r>     2.6408    11.3369   395.7500 </r>
       <r>     2.6987    11.8005   396.4331 </r>
       <r>     2.7565    12.1967   397.1389 </r>
       <r>     2.8144    12.4733   397.8605 </r>
       <r>     2.8722    12.5549   398.5869 </r>
       <r>     2.9301    12.3605   399.3025 </r>
       <r>     2.9879    11.8948   399.9910 </r>
       <r>     3.0457    11.2730   400.6434 </r>
       <r>     3.1036    10.7184   401.2636 </r>
       <r>     3.1614    10.4037   401.8657 </r>
       <r>     3.2193    10.3629   402.4655 </r>
       <r>     3.2771    10.5240   403.0746 </r>
       <r>     3.3350    10.8220   403.7008 </r>
       <r>     3.3928    11.2165   404.3499 </r>
       <r>     3.4507    11.6237   405.0226 </r>
       <r>     3.5085    11.8826   405.7102 </r>
       <r>     3.5664    11.8815   406.3979 </r>
       <r>     3.6242    11.6658   407.0731 </r>
       <r>     3.6821    11.3793   407.7319 </r>
       <r>     3.7399    11.1582   408.3776 </r>
       <r>     3.7978    11.0993   409.0202 </r>
       <r>     3.8556    11.2547   409.6715 </r>
       <r>     3.9135    11.5939   410.3423 </r>
       <r>     3.9713    11.9332   411.0329 </r>
       <r>     4.0291    12.0406   411.7295 </r>
       <r>     4.0870    11.8083   412.4129 </r>
       <r>     4.1448    11.3576   413.0702 </r>
       <r>     4.2027    10.9333   413.7028 </r>
       <r>     4.2605    10.7184   414.3232 </r>
       <r>     4.3184    10.7464   414.9452 </r>
       <r>     4.3762    10.9096   415.5767 </r>
       <r>     4.4341    11.0667   416.2171 </r>
       <r>     4.4919    11.1050   416.8599 </r>
       <r>     4.5498    10.9715   417.4948 </r>
       <r>     4.6076    10.6820   418.1130 </r>
       <r>     4.6655    10.2743   418.7074 </r>
       <r>     4.7233     9.8059   419.2751 </r>
       <r>     4.7812     9.4147   419.8201 </r>
       <r>     4.8390     9.2852   420.3577 </r>
       <r>     4.8969     9.5153   420.9084 </r>
       <r>     4.9547    10.0031   421.4874 </r>
       <r>     5.0125    10.5211   422.0961 </r>
       <r>     5.0704    10.9033   422.7270 </r>
       <r>     5.1282    11.1799   423.3742 </r>
       <r>     5.1861    11.4883   424.0389 </r>
       <r>     5.2439    11.8262   424.7234 </r>
       <r>     5.3018    12.0249   425.4195 </r>
       <r>     5.3596    11.9063   426.1085 </r>
       <r>     5.4175    11.4064   426.7685 </r>
       <r>     5.4753    10.6028   427.3823 </r>
       <r>     5.5332     9.6690   427.9418 </r>
       <r>     5.5910     8.8173   428.4522 </r>
       <r>     5.6489     8.2096   428.9271 </r>
       <r>     5.7067     7.8956   429.3839 </r>
       <r>     5.7646     7.8449   429.8382 </r>
       <r>     5.8224     7.9903   430.3006 </r>
       <r>     5.8803     8.2160   430.7764 </r>
       <r>     5.9381     8.3965   431.2621 </r>
       <r>     5.9960     8.4221   431.7497 </r>
       <r>     6.0538     8.3016   432.2304 </r>
       <r>     6.1116     8.1197   432.7004 </r>
       <r>     6.1695     7.9304   433.1595 </r>
       <r>     6.2273     7.7128   433.6060 </r>
       <r>     6.2852     7.4352   434.0365 </r>
       <r>     6.3430     7.1483   434.4502 </r>
       <r>     6.4009     6.9500   434.8523 </r>
       <r>     6.4587     6.8839   435.2508 </r>
       <r>     6.5166     6.9093   435.6505 </r>
       <r>     6.5744     6.9488   436.0528 </r>
       <r>     6.6323     6.9664   436.4559 </r>
       <r>     6.6901     6.9471   436.8581 </r>
       <r>     6.7480     6.8984   437.2574 </r>
       <r>     6.8058     6.8219   437.6524 </r>
       <r>     6.8637     6.6838   438.0391 </r>
       <r>     6.9215     6.4011   438.4096 </r>
       <r>     6.9794     5.9204   438.7523 </r>
       <r>     7.0372     5.2659   439.0572 </r>
       <r>     7.0950     4.5024   439.3179 </r>
       <r>     7.1529     3.6695   439.5303 </r>
       <r>     7.2107     2.8070   439.6928 </r>
       <r>     7.2686     1.9940   439.8084 </r>
       <r>     7.3264     1.3196   439.8849 </r>
       <r>     7.3843     0.8233   439.9327 </r>
       <r>     7.4421     0.4930   439.9614 </r>
       <r>     7.5000     0.2860   439.9781 </r>
       <r>     7.5578     0.1631   439.9877 </r>
       <r>     7.6157     0.0915   439.9932 </r>
       <r>     7.6735     0.0503   439.9963 </r>
       <r>     7.7314     0.0261   439.9981 </r>
       <r>     7.7892     0.0134   439.9990 </r>
       <r>     7.8471     0.0068   439.9995 </r>
       <r>     7.9049     0.0031   439.9998 </r>
       <r>     7.9628     0.0002   440.0000 </r>
       <r>     8.0206     0.0000   440.0000 </r>
       <r>     8.0784     0.0000   440.0000 </r>
       <r>     8.1363     0.0000   440.0000 </r>
       <r>     8.1941     0.0000   440.0000 </r>
      </set>
     </set>
    </array>
   </total>
  </dos>
 </calculation>
 <structure name="finalpos" >
  <crystal>
   <varray name="basis" >
    <v>       8.42164176       0.00000000       0.00000000 </v>
    <v>       4.21082088       7.29335571       0.00000000 </v>
    <v>       0.00000000       0.00000000      21.87624171 </v>
   </varray>
   <i name="volume">   1343.68315334 </i>
   <varray name="rec_basis" >
    <v>       0.11874169      -0.06855555       0.00000000 </v>
    <v>       0.00000000       0.13711110       0.00000000 </v>
    <v>       0.00000000       0.00000000       0.04571169 </v>
   </varray>
  </crystal>
  <varray name="positions" >
   <v>       0.00000000       0.00000000       0.34283768 </v>
   <v>       0.33333333       0.00000000       0.34283768 </v>
   <v>       0.66666667       0.00000000       0.34283768 </v>
   <v>       0.00000000       0.33333333       0.34283768 </v>
   <v>       0.33333333       0.33333333       0.34283768 </v>
   <v>       0.66666667       0.33333333       0.34283768 </v>
   <v>       0.00000000       0.66666667       0.34283768 </v>
   <v>       0.33333333       0.66666667       0.34283768 </v>
   <v>       0.66666667       0.66666667       0.34283768 </v>
   <v>       0.11111111       0.11111111       0.44761256 </v>
   <v>       0.44444444       0.11111111       0.44761256 </v>
   <v>       0.77777778       0.11111111       0.44761256 </v>
   <v>       0.11111111       0.44444444       0.44761256 </v>
   <v>       0.44444444       0.44444444       0.44761256 </v>
   <v>       0.77777778       0.44444444       0.44761256 </v>
   <v>       0.11111111       0.77777778       0.44761256 </v>
   <v>       0.44444444       0.77777778       0.44761256 </v>
   <v>       0.77777778       0.77777778       0.44761256 </v>
   <v>       0.88957354       0.22192121       0.55197483 </v>
   <v>       0.22184745       0.22192564       0.55197916 </v>
   <v>       0.55560047       0.22212426       0.55111662 </v>
   <v>       0.88914713       0.55502084       0.55143657 </v>
   <v>       0.22210731       0.55559497       0.55112482 </v>
   <v>       0.55561817       0.55558382       0.55112383 </v>
   <v>       0.88919420       0.88927977       0.55143468 </v>
   <v>       0.22192341       0.88947715       0.55193498 </v>
   <v>       0.55485472       0.88929381       0.55143324 </v>
   <v>       0.99703119       0.99714358       0.65829919 </v>
   <v>       0.33917174       0.99714233       0.65829595 </v>
   <v>       0.66651762       0.00030216       0.65642122 </v>
   <v>       0.99687936       0.33957639       0.65829844 </v>
   <v>       0.33452513       0.33464418       0.65639893 </v>
   <v>       0.66416332       0.33464339       0.65640240 </v>
   <v>       0.00013747       0.66678413       0.65642089 </v>
   <v>       0.33449317       0.66434345       0.65639776 </v>
   <v>       0.66640679       0.66677830       0.65642263 </v>
   <v>       0.11057118       0.11203250       0.69700663 </v>
  </varray>
  <varray name="selective"  type="logical" >
   <v type="logical" >  F  F  F </v>
   <v type="logical" >  F  F  F </v>
   <v type="logical" >  F  F  F </v>
   <v type="logical" >  F  F  F </v>
   <v type="logical" >  F  F  F </v>
   <v type="logical" >  F  F  F </v>
   <v type="logical" >  F  F  F </v>
   <v type="logical" >  F  F  F </v>
   <v type="logical" >  F  F  F </v>
   <v type="logical" >  F  F  F </v>
   <v type="logical" >  F  F  F </v>
   <v type="logical" >  F  F  F </v>
   <v type="logical" >  F  F  F </v>
   <v type="logical" >  F  F  F </v>
   <v type="logical" >  F  F  F </v>
   <v type="logical" >  F  F  F </v>
   <v type="logical" >  F  F  F </v>
   <v type="logical" >  F  F  F </v>
   <v type="logical" >  T  T  T </v>
   <v type="logical" >  T  T  T </v>
   <v type="logical" >  T  T  T </v>
   <v type="logical" >  T  T  T </v>
   <v type="logical" >  T  T  T </v>
   <v type="logical" >  T  T  T </v>
   <v type="logical" >  T  T  T </v>
   <v type="logical" >  T  T  T </v>
   <v type="logical" >  T  T  T </v>
   <v type="logical" >  T  T  T </v>
   <v type="logical" >  T  T  T </v>
   <v type="logical" >  T  T  T </v>
   <v type="logical" >  T  T  T </v>
   <v type="logical" >  T  T  T </v>
   <v type="logical" >  T  T  T </v>
   <v type="logical" >  T  T  T </v>
   <v type="logical" >  T  T  T </v>
   <v type="logical" >  T  T  T </v>
   <v type="logical" >  T  T  T </v>
  </varray>
  <nose>
   <v>      -3.00000000       0.00000000       0.00010000       0.00010000 </v>
  </nose>
 </structure>
</modeling>
