    4    4    1    1
  0.2000000E+04  0.2000000E-08  0.2000000E-08  0.2000000E-08  0.5000000E-15
  1.000000000000000E-004
  CAR 
 unknown system                          
     10      1     12
 
  0.0000000E+00  0.0000000E+00  0.0000000E+00  0.1000000E+01
    1      -18.575175   1.000000
    2      -13.999362   1.000000
    3      -12.117728   1.000000
    4       -7.163225   1.000000
    5       -7.163225   1.000000
    6       -0.423030   0.000000
    7       -0.423030   0.000000
    8       -0.214401   0.000000
    9        0.048103   0.000000
   10        0.118202   0.000000
   11        0.302566   0.000000
   12        0.303335   0.000000
