   39   39    1    1
  0.3445341E+02  0.8421642E-09  0.8421642E-09  0.2187624E-08  0.5000000E-15
  1.000000000000000E-004
  CAR 
 unknown system                          
    369     54    225
 
  0.8333333E-01  0.8333333E-01  0.0000000E+00  0.1851852E-01
    1      -14.629404   1.000000
    2       -8.719001   1.000000
    3       -7.808227   1.000000
    4       -6.586414   1.000000
    5       -6.266084   1.000000
    6       -5.704256   1.000000
    7       -5.649004   1.000000
    8       -5.509789   1.000000
    9       -5.394032   1.000000
   10       -5.345823   1.000000
   11       -5.327248   1.000000
   12       -5.234185   1.000000
   13       -5.185936   1.000000
   14       -5.135671   1.000000
   15       -4.843058   1.000000
   16       -4.769494   1.000000
   17       -4.756000   1.000000
   18       -4.753931   1.000000
   19       -4.696800   1.000000
   20       -4.600380   1.000000
   21       -4.589657   1.000000
   22       -4.337321   1.000000
   23       -4.317600   1.000000
   24       -4.288265   1.000000
   25       -4.186122   1.000000
   26       -4.172986   1.000000
   27       -4.154798   1.000000
   28       -4.073062   1.000000
   29       -4.044775   1.000000
   30       -4.023959   1.000000
   31       -3.947223   1.000000
   32       -3.944419   1.000000
   33       -3.925604   1.000000
   34       -3.892980   1.000000
   35       -3.885776   1.000000
   36       -3.842067   1.000000
   37       -3.837509   1.000000
   38       -3.814602   1.000000
   39       -3.804773   1.000000
   40       -3.768110   1.000000
   41       -3.746220   1.000000
   42       -3.728710   1.000000
   43       -3.605973   1.000000
   44       -3.552274   1.000000
   45       -3.418845   1.000000
   46       -3.251397   1.000000
   47       -3.241228   1.000000
   48       -3.199099   1.000000
   49       -3.174576   1.000000
   50       -3.136432   1.000000
   51       -3.126185   1.000000
   52       -3.106567   1.000000
   53       -3.070505   1.000000
   54       -3.057788   1.000000
   55       -2.909914   1.000000
   56       -2.895519   1.000000
   57       -2.853083   1.000000
   58       -2.810220   1.000000
   59       -2.794073   1.000000
   60       -2.444591   1.000000
   61       -2.430641   1.000000
   62       -2.384633   1.000000
   63       -2.363867   1.000000
   64       -2.313484   1.000000
   65       -2.291512   1.000000
   66       -2.282238   1.000000
   67       -2.277222   1.000000
   68       -2.243705   1.000000
   69       -2.214441   1.000000
   70       -2.203715   1.000000
   71       -2.171325   1.000000
   72       -2.128916   1.000000
   73       -2.121677   1.000000
   74       -2.074211   1.000000
   75       -2.072166   1.000000
   76       -2.057171   1.000000
   77       -2.011220   1.000000
   78       -1.995328   1.000000
   79       -1.965923   1.000000
   80       -1.946201   1.000000
   81       -1.919722   1.000000
   82       -1.918776   1.000000
   83       -1.901720   1.000000
   84       -1.845400   1.000000
   85       -1.830789   1.000000
   86       -1.812232   1.000000
   87       -1.808536   1.000000
   88       -1.782285   1.000000
   89       -1.697697   1.000000
   90       -1.669739   1.000000
   91       -1.640086   1.000000
   92       -1.639303   1.000000
   93       -1.605420   1.000000
   94       -1.597345   1.000000
   95       -1.590113   1.000000
   96       -1.561432   1.000000
   97       -1.545219   1.000000
   98       -1.520868   1.000000
   99       -1.507455   1.000000
  100       -1.499558   1.000000
  101       -1.465658   1.000000
  102       -1.432122   1.000000
  103       -1.429848   1.000000
  104       -1.366365   1.000000
  105       -1.316343   1.000000
  106       -1.309519   1.000000
  107       -1.263433   1.000000
  108       -1.261292   1.000000
  109       -1.260508   1.000000
  110       -1.211440   1.000000
  111       -1.182851   1.000000
  112       -1.160309   1.000000
  113       -1.115555   1.000000
  114       -0.981050   1.000000
  115       -0.881108   1.000000
  116       -0.818236   1.000000
  117       -0.800931   1.000000
  118       -0.775332   1.000000
  119       -0.713751   1.000000
  120       -0.704096   1.000000
  121       -0.655102   1.000000
  122       -0.650969   1.000000
  123       -0.636045   1.000000
  124       -0.572990   1.000000
  125       -0.569079   1.000000
  126       -0.515941   1.000000
  127       -0.503344   1.000000
  128       -0.388557   1.000000
  129       -0.335130   1.000000
  130       -0.328694   1.000000
  131       -0.269378   1.000000
  132       -0.212581   1.000000
  133       -0.133540   1.000000
  134       -0.116839   1.000000
  135       -0.099789   1.000000
  136       -0.084922   1.000000
  137       -0.069871   1.000000
  138       -0.046384   1.000000
  139       -0.009012   0.999999
  140       -0.007077   0.999999
  141        0.057166   0.999999
  142        0.079424   0.999999
  143        0.123479   0.999998
  144        0.144946   0.999997
  145        0.213324   0.999994
  146        0.214693   0.999994
  147        0.230507   0.999993
  148        0.251107   0.999992
  149        0.281165   0.999989
  150        0.368428   0.999973
  151        0.370989   0.999973
  152        0.433470   0.999949
  153        0.441917   0.999944
  154        0.478035   0.999920
  155        0.511123   0.999889
  156        0.528530   0.999868
  157        0.537020   0.999856
  158        0.543266   0.999847
  159        0.598465   0.999734
  160        0.603092   0.999721
  161        0.629463   0.999637
  162        0.654743   0.999532
  163        0.689762   0.999336
  164        0.707324   0.999209
  165        0.718979   0.999111
  166        0.738105   0.998924
  167        0.766995   0.998564
  168        0.815830   0.997662
  169        0.819870   0.997566
  170        0.841700   0.996974
  171        0.868615   0.996043
  172        0.870059   0.995986
  173        0.884720   0.995355
  174        0.885425   0.995323
  175        0.936621   0.992220
  176        0.937192   0.992176
  177        0.979165   0.988143
  178        1.032917   0.979874
  179        1.050124   0.976185
  180        1.060525   0.973643
  181        1.064770   0.972532
  182        1.091329   0.964472
  183        1.111771   0.956763
  184        1.120057   0.953202
  185        1.155472   0.934615
  186        1.190168   0.909939
  187        1.198288   0.903059
  188        1.207919   0.894294
  189        1.210942   0.891402
  190        1.230359   0.871128
  191        1.234120   0.866847
  192        1.271345   0.817741
  193        1.406410   0.537544
  194        1.419705   0.504378
  195        1.437513   0.459945
  196        1.460105   0.404564
  197        1.484396   0.347647
  198        1.526449   0.259239
  199        1.570850   0.183332
  200        1.587795   0.159307
  201        1.945807   0.005254
  202        2.123576   0.000892
  203        2.250272   0.000251
  204        2.314365   0.000132
  205        2.468868   0.000028
  206        2.779504   0.000001
  207        2.785942   0.000001
  208        4.104012   0.000000
  209        4.383644   0.000000
  210        4.588769   0.000000
  211        4.671782   0.000000
  212        4.912700   0.000000
  213        4.945349   0.000000
  214        5.169343   0.000000
  215        5.318515   0.000000
  216        5.756886   0.000000
  217        5.812995   0.000000
  218        6.018370   0.000000
  219        6.249461   0.000000
  220        6.327836   0.000000
  221        6.536813   0.000000
  222        6.632644   0.000000
  223        6.677822   0.000000
  224        6.755411   0.000000
  225        6.832774   0.000000
 
  0.0000000E+00  0.8333333E-01  0.0000000E+00  0.1851852E-01
    1      -14.629352   1.000000
    2       -8.719062   1.000000
    3       -7.808727   1.000000
    4       -6.587748   1.000000
    5       -6.264508   1.000000
    6       -5.731178   1.000000
    7       -5.645285   1.000000
    8       -5.474138   1.000000
    9       -5.393415   1.000000
   10       -5.349734   1.000000
   11       -5.327110   1.000000
   12       -5.245321   1.000000
   13       -5.194142   1.000000
   14       -5.132043   1.000000
   15       -4.828900   1.000000
   16       -4.784542   1.000000
   17       -4.755301   1.000000
   18       -4.733208   1.000000
   19       -4.692682   1.000000
   20       -4.619821   1.000000
   21       -4.581876   1.000000
   22       -4.348963   1.000000
   23       -4.305372   1.000000
   24       -4.286587   1.000000
   25       -4.211056   1.000000
   26       -4.163104   1.000000
   27       -4.130584   1.000000
   28       -4.077436   1.000000
   29       -4.057956   1.000000
   30       -4.008323   1.000000
   31       -3.977771   1.000000
   32       -3.931410   1.000000
   33       -3.921907   1.000000
   34       -3.890147   1.000000
   35       -3.877437   1.000000
   36       -3.866908   1.000000
   37       -3.822234   1.000000
   38       -3.816745   1.000000
   39       -3.797654   1.000000
   40       -3.777235   1.000000
   41       -3.756769   1.000000
   42       -3.703607   1.000000
   43       -3.601839   1.000000
   44       -3.570578   1.000000
   45       -3.424520   1.000000
   46       -3.263016   1.000000
   47       -3.244711   1.000000
   48       -3.191300   1.000000
   49       -3.163299   1.000000
   50       -3.149926   1.000000
   51       -3.135223   1.000000
   52       -3.099700   1.000000
   53       -3.064972   1.000000
   54       -3.041806   1.000000
   55       -2.910123   1.000000
   56       -2.894453   1.000000
   57       -2.861664   1.000000
   58       -2.819827   1.000000
   59       -2.780780   1.000000
   60       -2.454382   1.000000
   61       -2.423536   1.000000
   62       -2.387492   1.000000
   63       -2.360526   1.000000
   64       -2.324329   1.000000
   65       -2.301337   1.000000
   66       -2.285273   1.000000
   67       -2.267008   1.000000
   68       -2.227474   1.000000
   69       -2.214929   1.000000
   70       -2.204664   1.000000
   71       -2.164442   1.000000
   72       -2.147673   1.000000
   73       -2.099102   1.000000
   74       -2.084314   1.000000
   75       -2.065631   1.000000
   76       -2.039686   1.000000
   77       -2.014342   1.000000
   78       -2.007312   1.000000
   79       -1.984554   1.000000
   80       -1.942890   1.000000
   81       -1.924279   1.000000
   82       -1.915302   1.000000
   83       -1.895704   1.000000
   84       -1.873879   1.000000
   85       -1.837665   1.000000
   86       -1.825447   1.000000
   87       -1.790347   1.000000
   88       -1.769296   1.000000
   89       -1.681112   1.000000
   90       -1.658594   1.000000
   91       -1.650546   1.000000
   92       -1.631827   1.000000
   93       -1.617965   1.000000
   94       -1.598461   1.000000
   95       -1.585125   1.000000
   96       -1.561558   1.000000
   97       -1.538981   1.000000
   98       -1.515647   1.000000
   99       -1.510988   1.000000
  100       -1.496248   1.000000
  101       -1.464333   1.000000
  102       -1.433971   1.000000
  103       -1.429734   1.000000
  104       -1.360878   1.000000
  105       -1.336018   1.000000
  106       -1.284679   1.000000
  107       -1.267483   1.000000
  108       -1.262080   1.000000
  109       -1.260772   1.000000
  110       -1.219427   1.000000
  111       -1.187582   1.000000
  112       -1.135437   1.000000
  113       -1.105626   1.000000
  114       -0.948987   1.000000
  115       -0.898537   1.000000
  116       -0.842459   1.000000
  117       -0.784592   1.000000
  118       -0.760523   1.000000
  119       -0.729762   1.000000
  120       -0.714117   1.000000
  121       -0.671662   1.000000
  122       -0.651818   1.000000
  123       -0.634328   1.000000
  124       -0.570625   1.000000
  125       -0.539716   1.000000
  126       -0.523615   1.000000
  127       -0.489530   1.000000
  128       -0.446991   1.000000
  129       -0.351056   1.000000
  130       -0.315599   1.000000
  131       -0.263183   1.000000
  132       -0.210746   1.000000
  133       -0.127864   1.000000
  134       -0.115500   1.000000
  135       -0.091613   1.000000
  136       -0.084014   1.000000
  137       -0.068784   1.000000
  138       -0.053098   1.000000
  139       -0.014654   0.999999
  140        0.001419   0.999999
  141        0.040094   0.999999
  142        0.090520   0.999998
  143        0.121859   0.999998
  144        0.129827   0.999998
  145        0.195550   0.999995
  146        0.223883   0.999994
  147        0.247657   0.999992
  148        0.251548   0.999992
  149        0.290368   0.999988
  150        0.357153   0.999976
  151        0.373927   0.999972
  152        0.431060   0.999950
  153        0.438638   0.999946
  154        0.466972   0.999928
  155        0.483855   0.999915
  156        0.519146   0.999879
  157        0.536563   0.999856
  158        0.575942   0.999787
  159        0.606923   0.999710
  160        0.619277   0.999672
  161        0.628701   0.999639
  162        0.658852   0.999513
  163        0.679047   0.999404
  164        0.708108   0.999203
  165        0.719780   0.999104
  166        0.756996   0.998701
  167        0.770678   0.998510
  168        0.805440   0.997893
  169        0.817650   0.997620
  170        0.838237   0.997077
  171        0.850480   0.996697
  172        0.866436   0.996128
  173        0.870036   0.995987
  174        0.878872   0.995618
  175        0.944657   0.991574
  176        0.952094   0.990930
  177        0.982808   0.987709
  178        1.026399   0.981120
  179        1.040930   0.978231
  180        1.062758   0.973064
  181        1.079122   0.968426
  182        1.090893   0.964622
  183        1.111728   0.956780
  184        1.117800   0.954199
  185        1.155689   0.934482
  186        1.164833   0.928657
  187        1.197357   0.903871
  188        1.203975   0.897965
  189        1.210788   0.891551
  190        1.231379   0.869979
  191        1.239578   0.860420
  192        1.304566   0.762947
  193        1.383099   0.594736
  194        1.415175   0.515699
  195        1.448531   0.432725
  196        1.467034   0.387988
  197        1.485417   0.345335
  198        1.524960   0.262110
  199        1.537771   0.238096
  200        1.624570   0.115972
  201        1.935739   0.005807
  202        2.146930   0.000706
  203        2.240354   0.000278
  204        2.322650   0.000122
  205        2.464575   0.000029
  206        2.755926   0.000002
  207        2.804368   0.000001
  208        4.120620   0.000000
  209        4.395409   0.000000
  210        4.548635   0.000000
  211        4.771188   0.000000
  212        4.828488   0.000000
  213        4.950067   0.000000
  214        5.120214   0.000000
  215        5.378658   0.000000
  216        5.716383   0.000000
  217        5.802402   0.000000
  218        6.104043   0.000000
  219        6.221068   0.000000
  220        6.330098   0.000000
  221        6.494222   0.000000
  222        6.604706   0.000000
  223        6.743482   0.000000
  224        6.790921   0.000000
  225        6.969873   0.000000
 
 -0.8333333E-01  0.0000000E+00  0.0000000E+00  0.1851852E-01
    1      -14.629352   1.000000
    2       -8.719006   1.000000
    3       -7.808743   1.000000
    4       -6.587767   1.000000
    5       -6.264428   1.000000
    6       -5.731831   1.000000
    7       -5.645322   1.000000
    8       -5.473230   1.000000
    9       -5.392858   1.000000
   10       -5.350300   1.000000
   11       -5.327096   1.000000
   12       -5.245687   1.000000
   13       -5.194301   1.000000
   14       -5.131994   1.000000
   15       -4.828511   1.000000
   16       -4.784775   1.000000
   17       -4.755208   1.000000
   18       -4.733260   1.000000
   19       -4.691723   1.000000
   20       -4.620781   1.000000
   21       -4.581950   1.000000
   22       -4.349393   1.000000
   23       -4.305233   1.000000
   24       -4.286353   1.000000
   25       -4.211817   1.000000
   26       -4.162124   1.000000
   27       -4.130081   1.000000
   28       -4.077764   1.000000
   29       -4.058687   1.000000
   30       -4.008322   1.000000
   31       -3.977762   1.000000
   32       -3.931534   1.000000
   33       -3.922068   1.000000
   34       -3.890002   1.000000
   35       -3.877132   1.000000
   36       -3.866574   1.000000
   37       -3.822145   1.000000
   38       -3.816940   1.000000
   39       -3.797592   1.000000
   40       -3.777031   1.000000
   41       -3.758017   1.000000
   42       -3.703504   1.000000
   43       -3.601555   1.000000
   44       -3.569820   1.000000
   45       -3.424924   1.000000
   46       -3.262839   1.000000
   47       -3.245381   1.000000
   48       -3.191059   1.000000
   49       -3.163117   1.000000
   50       -3.149985   1.000000
   51       -3.134768   1.000000
   52       -3.099874   1.000000
   53       -3.064597   1.000000
   54       -3.042236   1.000000
   55       -2.909561   1.000000
   56       -2.894592   1.000000
   57       -2.862080   1.000000
   58       -2.820222   1.000000
   59       -2.780971   1.000000
   60       -2.453933   1.000000
   61       -2.423841   1.000000
   62       -2.387612   1.000000
   63       -2.360666   1.000000
   64       -2.324193   1.000000
   65       -2.300665   1.000000
   66       -2.285019   1.000000
   67       -2.267540   1.000000
   68       -2.227616   1.000000
   69       -2.214727   1.000000
   70       -2.204870   1.000000
   71       -2.164919   1.000000
   72       -2.147173   1.000000
   73       -2.099571   1.000000
   74       -2.083914   1.000000
   75       -2.066433   1.000000
   76       -2.039295   1.000000
   77       -2.014692   1.000000
   78       -2.007485   1.000000
   79       -1.984556   1.000000
   80       -1.942634   1.000000
   81       -1.924373   1.000000
   82       -1.915651   1.000000
   83       -1.894469   1.000000
   84       -1.873670   1.000000
   85       -1.837549   1.000000
   86       -1.825641   1.000000
   87       -1.790369   1.000000
   88       -1.769504   1.000000
   89       -1.680702   1.000000
   90       -1.658951   1.000000
   91       -1.650288   1.000000
   92       -1.631869   1.000000
   93       -1.617995   1.000000
   94       -1.598315   1.000000
   95       -1.584903   1.000000
   96       -1.562242   1.000000
   97       -1.538806   1.000000
   98       -1.515573   1.000000
   99       -1.511038   1.000000
  100       -1.495962   1.000000
  101       -1.464342   1.000000
  102       -1.433907   1.000000
  103       -1.429796   1.000000
  104       -1.360763   1.000000
  105       -1.336398   1.000000
  106       -1.285005   1.000000
  107       -1.267497   1.000000
  108       -1.262031   1.000000
  109       -1.260725   1.000000
  110       -1.218589   1.000000
  111       -1.187430   1.000000
  112       -1.135021   1.000000
  113       -1.105994   1.000000
  114       -0.948740   1.000000
  115       -0.897955   1.000000
  116       -0.841264   1.000000
  117       -0.785230   1.000000
  118       -0.760266   1.000000
  119       -0.730314   1.000000
  120       -0.714758   1.000000
  121       -0.671951   1.000000
  122       -0.651227   1.000000
  123       -0.634329   1.000000
  124       -0.571328   1.000000
  125       -0.540169   1.000000
  126       -0.523723   1.000000
  127       -0.489646   1.000000
  128       -0.446429   1.000000
  129       -0.350593   1.000000
  130       -0.315535   1.000000
  131       -0.263151   1.000000
  132       -0.210801   1.000000
  133       -0.127891   1.000000
  134       -0.115859   1.000000
  135       -0.091517   1.000000
  136       -0.083995   1.000000
  137       -0.068796   1.000000
  138       -0.053533   1.000000
  139       -0.014987   0.999999
  140        0.000835   0.999999
  141        0.040387   0.999999
  142        0.090354   0.999998
  143        0.122645   0.999998
  144        0.130497   0.999998
  145        0.195467   0.999995
  146        0.224275   0.999994
  147        0.246925   0.999992
  148        0.251842   0.999992
  149        0.290385   0.999988
  150        0.357964   0.999976
  151        0.374739   0.999972
  152        0.430276   0.999950
  153        0.438970   0.999946
  154        0.466182   0.999929
  155        0.484007   0.999915
  156        0.519274   0.999879
  157        0.537821   0.999855
  158        0.575962   0.999787
  159        0.607551   0.999708
  160        0.618884   0.999673
  161        0.628569   0.999640
  162        0.658012   0.999517
  163        0.678727   0.999406
  164        0.708163   0.999202
  165        0.719831   0.999104
  166        0.756032   0.998713
  167        0.770245   0.998517
  168        0.805315   0.997895
  169        0.817689   0.997619
  170        0.838363   0.997073
  171        0.850356   0.996702
  172        0.866103   0.996141
  173        0.869763   0.995998
  174        0.878813   0.995621
  175        0.944785   0.991564
  176        0.952063   0.990932
  177        0.983011   0.987684
  178        1.026190   0.981158
  179        1.041056   0.978204
  180        1.062464   0.973141
  181        1.079116   0.968428
  182        1.091643   0.964365
  183        1.111546   0.956856
  184        1.117839   0.954182
  185        1.155144   0.934815
  186        1.164766   0.928701
  187        1.197607   0.903654
  188        1.204204   0.897755
  189        1.210735   0.891602
  190        1.231511   0.869830
  191        1.239470   0.860550
  192        1.305604   0.761064
  193        1.382808   0.595436
  194        1.414649   0.517013
  195        1.448389   0.433072
  196        1.467408   0.387100
  197        1.485183   0.345865
  198        1.524820   0.262379
  199        1.537493   0.238600
  200        1.624575   0.115967
  201        1.935661   0.005812
  202        2.147812   0.000700
  203        2.240507   0.000277
  204        2.321672   0.000123
  205        2.465296   0.000029
  206        2.755885   0.000002
  207        2.803876   0.000001
  208        4.121577   0.000000
  209        4.396638   0.000000
  210        4.545997   0.000000
  211        4.769466   0.000000
  212        4.829142   0.000000
  213        4.952980   0.000000
  214        5.117802   0.000000
  215        5.376233   0.000000
  216        5.718865   0.000000
  217        5.806770   0.000000
  218        6.098834   0.000000
  219        6.219037   0.000000
  220        6.333981   0.000000
  221        6.492385   0.000000
  222        6.606975   0.000000
  223        6.743882   0.000000
  224        6.805529   0.000000
  225        6.873727   0.000000
 
  0.2500000E+00  0.8333333E-01  0.0000000E+00  0.1851852E-01
    1      -14.628604   1.000000
    2       -8.714949   1.000000
    3       -7.655889   1.000000
    4       -6.472806   1.000000
    5       -6.239039   1.000000
    6       -5.934402   1.000000
    7       -5.686166   1.000000
    8       -5.558905   1.000000
    9       -5.490503   1.000000
   10       -5.227246   1.000000
   11       -5.178683   1.000000
   12       -5.104543   1.000000
   13       -5.071311   1.000000
   14       -5.038769   1.000000
   15       -4.862269   1.000000
   16       -4.828230   1.000000
   17       -4.757297   1.000000
   18       -4.724655   1.000000
   19       -4.633026   1.000000
   20       -4.568037   1.000000
   21       -4.497335   1.000000
   22       -4.365286   1.000000
   23       -4.282983   1.000000
   24       -4.260111   1.000000
   25       -4.197110   1.000000
   26       -4.181524   1.000000
   27       -4.127173   1.000000
   28       -4.109776   1.000000
   29       -4.071267   1.000000
   30       -4.040238   1.000000
   31       -4.034021   1.000000
   32       -4.005411   1.000000
   33       -3.973909   1.000000
   34       -3.954153   1.000000
   35       -3.905419   1.000000
   36       -3.838978   1.000000
   37       -3.813811   1.000000
   38       -3.779194   1.000000
   39       -3.739736   1.000000
   40       -3.651777   1.000000
   41       -3.610739   1.000000
   42       -3.598487   1.000000
   43       -3.567680   1.000000
   44       -3.517418   1.000000
   45       -3.421790   1.000000
   46       -3.313484   1.000000
   47       -3.298366   1.000000
   48       -3.246056   1.000000
   49       -3.225695   1.000000
   50       -3.192199   1.000000
   51       -3.168797   1.000000
   52       -3.106322   1.000000
   53       -3.052954   1.000000
   54       -2.970914   1.000000
   55       -2.937495   1.000000
   56       -2.900470   1.000000
   57       -2.879852   1.000000
   58       -2.838117   1.000000
   59       -2.777788   1.000000
   60       -2.651156   1.000000
   61       -2.616990   1.000000
   62       -2.509001   1.000000
   63       -2.467540   1.000000
   64       -2.441706   1.000000
   65       -2.420514   1.000000
   66       -2.395342   1.000000
   67       -2.355350   1.000000
   68       -2.337001   1.000000
   69       -2.304275   1.000000
   70       -2.252820   1.000000
   71       -2.245174   1.000000
   72       -2.181320   1.000000
   73       -2.152762   1.000000
   74       -2.138547   1.000000
   75       -2.120484   1.000000
   76       -2.094402   1.000000
   77       -2.082174   1.000000
   78       -2.033785   1.000000
   79       -1.996824   1.000000
   80       -1.922408   1.000000
   81       -1.918992   1.000000
   82       -1.892993   1.000000
   83       -1.865035   1.000000
   84       -1.847167   1.000000
   85       -1.833551   1.000000
   86       -1.804751   1.000000
   87       -1.786485   1.000000
   88       -1.744092   1.000000
   89       -1.722434   1.000000
   90       -1.703898   1.000000
   91       -1.697130   1.000000
   92       -1.660435   1.000000
   93       -1.641043   1.000000
   94       -1.622099   1.000000
   95       -1.605821   1.000000
   96       -1.597809   1.000000
   97       -1.563081   1.000000
   98       -1.546615   1.000000
   99       -1.531412   1.000000
  100       -1.495185   1.000000
  101       -1.478459   1.000000
  102       -1.463671   1.000000
  103       -1.414110   1.000000
  104       -1.405711   1.000000
  105       -1.380188   1.000000
  106       -1.360735   1.000000
  107       -1.337529   1.000000
  108       -1.288634   1.000000
  109       -1.271304   1.000000
  110       -1.232746   1.000000
  111       -1.208325   1.000000
  112       -1.180065   1.000000
  113       -1.148052   1.000000
  114       -1.117159   1.000000
  115       -1.055079   1.000000
  116       -1.011126   1.000000
  117       -0.956463   1.000000
  118       -0.920458   1.000000
  119       -0.799315   1.000000
  120       -0.747817   1.000000
  121       -0.713523   1.000000
  122       -0.674502   1.000000
  123       -0.628220   1.000000
  124       -0.624879   1.000000
  125       -0.603215   1.000000
  126       -0.568013   1.000000
  127       -0.512208   1.000000
  128       -0.481319   1.000000
  129       -0.447102   1.000000
  130       -0.368540   1.000000
  131       -0.321112   1.000000
  132       -0.280076   1.000000
  133       -0.223569   1.000000
  134       -0.190468   1.000000
  135       -0.185840   1.000000
  136       -0.174152   1.000000
  137       -0.128190   1.000000
  138       -0.077037   1.000000
  139       -0.059801   1.000000
  140       -0.034455   1.000000
  141        0.032268   0.999999
  142        0.069365   0.999999
  143        0.101742   0.999998
  144        0.128641   0.999998
  145        0.146232   0.999997
  146        0.170985   0.999996
  147        0.203747   0.999995
  148        0.221016   0.999994
  149        0.247329   0.999992
  150        0.289226   0.999988
  151        0.297987   0.999987
  152        0.336728   0.999981
  153        0.352448   0.999977
  154        0.408205   0.999960
  155        0.424920   0.999953
  156        0.442165   0.999944
  157        0.479866   0.999919
  158        0.513190   0.999886
  159        0.570123   0.999799
  160        0.614447   0.999687
  161        0.645375   0.999574
  162        0.664312   0.999485
  163        0.704761   0.999229
  164        0.767983   0.998550
  165        0.775064   0.998444
  166        0.824654   0.997447
  167        0.858996   0.996405
  168        0.879125   0.995607
  169        0.916049   0.993657
  170        0.941960   0.991797
  171        0.973994   0.988734
  172        1.026073   0.981180
  173        1.055672   0.974860
  174        1.061969   0.973270
  175        1.086646   0.966043
  176        1.096406   0.962691
  177        1.148898   0.938520
  178        1.160207   0.931661
  179        1.187380   0.912198
  180        1.207973   0.894243
  181        1.227204   0.874629
  182        1.262423   0.830664
  183        1.277465   0.808442
  184        1.321792   0.730398
  185        1.346985   0.678026
  186        1.368849   0.628568
  187        1.388567   0.581491
  188        1.404950   0.541172
  189        1.413188   0.520660
  190        1.432747   0.471804
  191        1.473218   0.373411
  192        1.505158   0.302163
  193        1.552511   0.212396
  194        1.576498   0.175026
  195        1.609409   0.132443
  196        1.660337   0.084030
  197        1.689354   0.064225
  198        1.737218   0.040792
  199        1.872664   0.010857
  200        1.955243   0.004783
  201        1.991756   0.003325
  202        2.176841   0.000524
  203        2.424444   0.000044
  204        2.821240   0.000001
  205        2.872113   0.000001
  206        3.011161   0.000000
  207        3.128508   0.000000
  208        3.928199   0.000000
  209        4.128919   0.000000
  210        4.564925   0.000000
  211        4.635609   0.000000
  212        4.875655   0.000000
  213        5.001230   0.000000
  214        5.184447   0.000000
  215        5.328354   0.000000
  216        5.462231   0.000000
  217        5.535686   0.000000
  218        5.898236   0.000000
  219        5.965565   0.000000
  220        6.223200   0.000000