 running on   20 total cores
 distrk:  each k-point on   20 cores,    1 groups
 distr:  one band on    4 cores,    5 groups
 using from now: INCAR     
 vasp.5.4.1 24Jun15 (build Oct 10 2016 12:42:00) complex                        
  
 POSCAR found :  3 types and      39 ions
 scaLAPACK will be used
 LDA part: xc-table for Pade appr. of Perdew
 POSCAR found :  3 types and      39 ions
 POSCAR, INCAR and KPOINTS ok, starting setup
 WARNING: small aliasing (wrap around) errors must be expected
 FFT: planning ...
 WAVECAR not read
 entering main loop
       N       E                     dE             d eps       ncg     rms          rms(c)
DAV:   1     0.220274973872E+04    0.22027E+04   -0.14593E+05 24380   0.116E+03
DAV:   2    -0.833378737206E+02   -0.22861E+04   -0.21158E+04 28360   0.268E+02
DAV:   3    -0.240138490840E+03   -0.15680E+03   -0.14207E+03 29070   0.637E+01
DAV:   4    -0.246852695498E+03   -0.67142E+01   -0.64955E+01 31710   0.127E+01    0.654E+01
RMM:   5    -0.235968877473E+03    0.10884E+02   -0.52637E+01 25734   0.145E+01    0.438E+01
RMM:   6    -0.284389236433E+03   -0.48420E+02   -0.79232E+01 26132   0.133E+01    0.588E+01
RMM:   7    -0.243182854673E+03    0.41206E+02   -0.32765E+01 25226   0.930E+00    0.328E+01
RMM:   8    -0.243616061250E+03   -0.43321E+00   -0.22111E+01 25697   0.741E+00    0.329E+01
RMM:   9    -0.239636063594E+03    0.39800E+01   -0.13415E+01 25974   0.571E+00    0.288E+01
RMM:  10    -0.230715828718E+03    0.89202E+01   -0.32026E+00 25213   0.306E+00    0.996E+00
RMM:  11    -0.230572736555E+03    0.14309E+00   -0.16413E+00 25695   0.203E+00    0.871E+00
RMM:  12    -0.230006294267E+03    0.56644E+00   -0.63469E-01 25585   0.128E+00    0.454E+00
RMM:  13    -0.229897125743E+03    0.10917E+00   -0.28274E-01 25961   0.835E-01    0.264E+00
RMM:  14    -0.229875639568E+03    0.21486E-01   -0.67848E-02 26351   0.409E-01    0.218E+00
RMM:  15    -0.229854993424E+03    0.20646E-01   -0.21101E-02 25696   0.243E-01    0.166E+00
RMM:  16    -0.229841532245E+03    0.13461E-01   -0.23785E-02 25435   0.249E-01    0.121E+00
RMM:  17    -0.229831037517E+03    0.10495E-01   -0.11325E-02 25500   0.171E-01    0.519E-01
RMM:  18    -0.229830314319E+03    0.72320E-03   -0.45071E-03 25790   0.110E-01    0.359E-01
RMM:  19    -0.229829923319E+03    0.39100E-03   -0.10387E-03 25915   0.543E-02    0.243E-01
RMM:  20    -0.229829332182E+03    0.59114E-03   -0.33651E-04 25775   0.308E-02    0.151E-01
RMM:  21    -0.229829227851E+03    0.10433E-03   -0.27612E-04 25768   0.258E-02    0.132E-01
RMM:  22    -0.229829176564E+03    0.51287E-04   -0.15690E-04 25704   0.190E-02    0.916E-02
RMM:  23    -0.229829189244E+03   -0.12680E-04   -0.77552E-05 26047   0.128E-02    0.582E-02
RMM:  24    -0.229829357981E+03   -0.16874E-03   -0.15062E-04 25373   0.173E-02    0.495E-02
RMM:  25    -0.229829530864E+03   -0.17288E-03   -0.60438E-05 25991   0.109E-02    0.682E-02
RMM:  26    -0.229829736062E+03   -0.20520E-03   -0.28786E-05 25492   0.799E-03    0.469E-02
RMM:  27    -0.229829900536E+03   -0.16447E-03   -0.18435E-05 25818   0.637E-03    0.333E-02
RMM:  28    -0.229830037775E+03   -0.13724E-03   -0.97269E-06 24234   0.451E-03    0.229E-02
RMM:  29    -0.229830195609E+03   -0.15783E-03   -0.85675E-06 22976   0.414E-03    0.885E-03
RMM:  30    -0.229830306795E+03   -0.11119E-03   -0.37654E-06 18745   0.269E-03    0.788E-03
RMM:  31    -0.229830443314E+03   -0.13652E-03   -0.43486E-06 18851   0.258E-03    0.638E-03
RMM:  32    -0.229830475697E+03   -0.32383E-04   -0.92758E-07 15821   0.134E-03    0.443E-03
RMM:  33    -0.229830541103E+03   -0.65406E-04   -0.15947E-06 16092   0.152E-03    0.472E-03
RMM:  34    -0.229830571993E+03   -0.30890E-04   -0.88312E-07 15068   0.110E-03    0.382E-03
RMM:  35    -0.229830587137E+03   -0.15144E-04   -0.55497E-07 12464   0.853E-04    0.221E-03
RMM:  36    -0.229830591324E+03   -0.41879E-05   -0.22714E-07 10069   0.609E-04    0.153E-03
RMM:  37    -0.229830596655E+03   -0.53305E-05   -0.28708E-07 12278   0.697E-04    0.561E-04
RMM:  38    -0.229830598175E+03   -0.15202E-05   -0.93063E-08  6790   0.463E-04    0.698E-04
RMM:  39    -0.229830598952E+03   -0.77734E-06   -0.49692E-08  5874   0.449E-04
   1 F= -.22983060E+03 E0= -.22878863E+03  d E =-.208393E+01
