<?xml version="1.0" encoding="ISO-8859-1"?>
<modeling>
 <generator>
  <i name="program" type="string">vasp </i>
  <i name="version" type="string">5.4.1  </i>
  <i name="subversion" type="string">24Jun15 (build Oct 10 2016 12:42:00) complex                          parallel </i>
  <i name="platform" type="string">IFC91_ompi </i>
  <i name="date" type="string">2018 07 02 </i>
  <i name="time" type="string">15:43:15 </i>
 </generator>
 <incar>
  <i type="string" name="PREC">normal</i>
  <i type="string" name="ALGO"> fast</i>
  <i type="int" name="ISPIN">     1</i>
  <i type="int" name="NELMDL">    -4</i>
  <i type="int" name="NELMIN">     4</i>
  <i name="EDIFF">      0.00000100</i>
  <i name="ENCUT">    400.00000000</i>
  <i type="string" name="LREAL"> auto</i>
  <i type="int" name="ISMEAR">    -1</i>
  <i name="SIGMA">      0.10000000</i>
  <i type="logical" name="LWAVE"> F  </i>
  <i type="logical" name="LCHARG"> F  </i>
  <v type="int" name="KPOINT_BSE">    -1     0     0     0</v>
  <i type="string" name="GGA"> PE</i>
 </incar>
 <kpoints>
  <generation param="Monkhorst-Pack">
   <v type="int" name="divisions">       6        6        1 </v>
   <v name="usershift">      0.00000000       0.00000000       0.00000000 </v>
   <v name="genvec1">      0.16666667      -0.00000000       0.00000000 </v>
   <v name="genvec2">      0.00000000       0.16666667       0.00000000 </v>
   <v name="genvec3">      0.00000000       0.00000000       1.00000000 </v>
   <v name="shift">      0.50000000       0.50000000       0.00000000 </v>
  </generation>
  <varray name="kpointlist" >
   <v>       0.08333333       0.08333333       0.00000000 </v>
   <v>       0.00000000       0.08333333       0.00000000 </v>
   <v>      -0.08333333       0.00000000       0.00000000 </v>
   <v>       0.25000000       0.08333333       0.00000000 </v>
   <v>       0.16666667       0.25000000       0.00000000 </v>
   <v>      -0.08333333       0.16666667       0.00000000 </v>
   <v>       0.16666667      -0.08333333       0.00000000 </v>
   <v>      -0.08333333      -0.25000000       0.00000000 </v>
   <v>      -0.25000000      -0.16666667       0.00000000 </v>
   <v>       0.41666667       0.08333333       0.00000000 </v>
   <v>       0.33333333       0.41666667       0.00000000 </v>
   <v>      -0.08333333       0.33333333       0.00000000 </v>
   <v>       0.33333333      -0.08333333       0.00000000 </v>
   <v>      -0.08333333      -0.41666667       0.00000000 </v>
   <v>      -0.41666667      -0.33333333       0.00000000 </v>
   <v>      -0.41666667       0.08333333       0.00000000 </v>
   <v>       0.50000000      -0.41666667       0.00000000 </v>
   <v>      -0.08333333       0.50000000       0.00000000 </v>
   <v>       0.50000000      -0.08333333       0.00000000 </v>
   <v>      -0.08333333       0.41666667       0.00000000 </v>
   <v>       0.41666667       0.50000000       0.00000000 </v>
   <v>      -0.25000000       0.08333333       0.00000000 </v>
   <v>      -0.33333333      -0.25000000       0.00000000 </v>
   <v>      -0.08333333      -0.33333333       0.00000000 </v>
   <v>      -0.33333333      -0.08333333       0.00000000 </v>
   <v>      -0.08333333       0.25000000       0.00000000 </v>
   <v>       0.25000000       0.33333333       0.00000000 </v>
   <v>      -0.08333333       0.08333333       0.00000000 </v>
   <v>      -0.16666667      -0.08333333       0.00000000 </v>
   <v>      -0.08333333      -0.16666667       0.00000000 </v>
   <v>       0.25000000       0.25000000       0.00000000 </v>
   <v>       0.00000000       0.25000000       0.00000000 </v>
   <v>      -0.25000000       0.00000000       0.00000000 </v>
   <v>       0.41666667       0.25000000       0.00000000 </v>
   <v>       0.16666667       0.41666667       0.00000000 </v>
   <v>      -0.25000000       0.16666667       0.00000000 </v>
   <v>       0.16666667      -0.25000000       0.00000000 </v>
   <v>      -0.25000000      -0.41666667       0.00000000 </v>
   <v>      -0.41666667      -0.16666667       0.00000000 </v>
   <v>      -0.41666667       0.25000000       0.00000000 </v>
   <v>       0.33333333      -0.41666667       0.00000000 </v>
   <v>      -0.25000000       0.33333333       0.00000000 </v>
   <v>       0.33333333      -0.25000000       0.00000000 </v>
   <v>      -0.25000000       0.41666667       0.00000000 </v>
   <v>       0.41666667      -0.33333333       0.00000000 </v>
   <v>      -0.25000000       0.25000000       0.00000000 </v>
   <v>       0.50000000      -0.25000000       0.00000000 </v>
   <v>      -0.25000000       0.50000000       0.00000000 </v>
   <v>       0.41666667       0.41666667       0.00000000 </v>
   <v>       0.00000000       0.41666667       0.00000000 </v>
   <v>      -0.41666667      -0.00000000       0.00000000 </v>
   <v>      -0.41666667       0.41666667       0.00000000 </v>
   <v>       0.16666667      -0.41666667       0.00000000 </v>
   <v>      -0.41666667       0.16666667       0.00000000 </v>
  </varray>
  <varray name="weights" >
   <v>       0.01851852 </v>
   <v>       0.01851852 </v>
   <v>       0.01851852 </v>
   <v>       0.01851852 </v>
   <v>       0.01851852 </v>
   <v>       0.01851852 </v>
   <v>       0.01851852 </v>
   <v>       0.01851852 </v>
   <v>       0.01851852 </v>
   <v>       0.01851852 </v>
   <v>       0.01851852 </v>
   <v>       0.01851852 </v>
   <v>       0.01851852 </v>
   <v>       0.01851852 </v>
   <v>       0.01851852 </v>
   <v>       0.01851852 </v>
   <v>       0.01851852 </v>
   <v>       0.01851852 </v>
   <v>       0.01851852 </v>
   <v>       0.01851852 </v>
   <v>       0.01851852 </v>
   <v>       0.01851852 </v>
   <v>       0.01851852 </v>
   <v>       0.01851852 </v>
   <v>       0.01851852 </v>
   <v>       0.01851852 </v>
   <v>       0.01851852 </v>
   <v>       0.01851852 </v>
   <v>       0.01851852 </v>
   <v>       0.01851852 </v>
   <v>       0.01851852 </v>
   <v>       0.01851852 </v>
   <v>       0.01851852 </v>
   <v>       0.01851852 </v>
   <v>       0.01851852 </v>
   <v>       0.01851852 </v>
   <v>       0.01851852 </v>
   <v>       0.01851852 </v>
   <v>       0.01851852 </v>
   <v>       0.01851852 </v>
   <v>       0.01851852 </v>
   <v>       0.01851852 </v>
   <v>       0.01851852 </v>
   <v>       0.01851852 </v>
   <v>       0.01851852 </v>
   <v>       0.01851852 </v>
   <v>       0.01851852 </v>
   <v>       0.01851852 </v>
   <v>       0.01851852 </v>
   <v>       0.01851852 </v>
   <v>       0.01851852 </v>
   <v>       0.01851852 </v>
   <v>       0.01851852 </v>
   <v>       0.01851852 </v>
  </varray>
 </kpoints>
 <parameters>
  <separator name="general" >
   <i type="string" name="SYSTEM">unknown system</i>
   <i type="logical" name="LCOMPAT"> F  </i>
  </separator>
  <separator name="electronic" >
   <i type="string" name="PREC">normal</i>
   <i name="ENMAX">    400.00000000</i>
   <i name="ENAUG">    644.87300000</i>
   <i name="EDIFF">      0.00000100</i>
   <i type="int" name="IALGO">    68</i>
   <i type="int" name="IWAVPR">    10</i>
   <i type="int" name="NBANDS">   225</i>
   <i name="NELECT">    369.00000000</i>
   <i type="int" name="TURBO">     0</i>
   <i type="int" name="IRESTART">     0</i>
   <i type="int" name="NREBOOT">     0</i>
   <i type="int" name="NMIN">     0</i>
   <i name="EREF">      0.00000000</i>
   <separator name="electronic smearing" >
    <i type="int" name="ISMEAR">    -1</i>
    <i name="SIGMA">      0.10000000</i>
    <i name="KSPACING">      0.50000000</i>
    <i type="logical" name="KGAMMA"> T  </i>
   </separator>
   <separator name="electronic projectors" >
    <i type="logical" name="LREAL"> T  </i>
    <v name="ROPT">     -0.00050000     -0.00050000     -0.00050000</v>
    <i type="int" name="LMAXPAW">  -100</i>
    <i type="int" name="LMAXMIX">     2</i>
    <i type="logical" name="NLSPLINE"> F  </i>
   </separator>
   <separator name="electronic startup" >
    <i type="int" name="ISTART">     0</i>
    <i type="int" name="ICHARG">     2</i>
    <i type="int" name="INIWAV">     1</i>
   </separator>
   <separator name="electronic spin" >
    <i type="int" name="ISPIN">     1</i>
    <i type="logical" name="LNONCOLLINEAR"> F  </i>
    <v name="MAGMOM">      1.00000000      1.00000000      1.00000000      1.00000000      1.00000000      1.00000000      1.00000000      1.00000000      1.00000000      1.00000000      1.00000000      1.00000000      1.00000000      1.00000000      1.00000000      1.00000000      1.00000000      1.00000000      1.00000000      1.00000000
      1.00000000      1.00000000      1.00000000      1.00000000      1.00000000      1.00000000      1.00000000      1.00000000      1.00000000      1.00000000      1.00000000      1.00000000      1.00000000      1.00000000      1.00000000      1.00000000      1.00000000      1.00000000      1.00000000</v>
    <i name="NUPDOWN">     -1.00000000</i>
    <i type="logical" name="LSORBIT"> F  </i>
    <v name="SAXIS">      0.00000000      0.00000000      1.00000000</v>
    <i type="logical" name="LSPIRAL"> F  </i>
    <v name="QSPIRAL">      0.00000000      0.00000000      0.00000000</v>
    <i type="logical" name="LZEROZ"> F  </i>
   </separator>
   <separator name="electronic exchange-correlation" >
    <i type="logical" name="LASPH"> F  </i>
    <i type="logical" name="LMETAGGA"> F  </i>
   </separator>
   <separator name="electronic convergence" >
    <i type="int" name="NELM">    60</i>
    <i type="int" name="NELMDL">    -4</i>
    <i type="int" name="NELMIN">     4</i>
    <i name="ENINI">    400.00000000</i>
    <separator name="electronic convergence detail" >
     <i type="logical" name="LDIAG"> T  </i>
     <i type="logical" name="LSUBROT"> F  </i>
     <i name="WEIMIN">      0.00000000</i>
     <i name="EBREAK">      0.00000000</i>
     <i name="DEPER">      0.30000000</i>
     <i type="int" name="NRMM">     4</i>
     <i name="TIME">      0.40000000</i>
    </separator>
   </separator>
   <separator name="electronic mixer" >
    <i name="AMIX">      0.40000000</i>
    <i name="BMIX">      1.00000000</i>
    <i name="AMIN">      0.10000000</i>
    <i name="AMIX_MAG">      1.60000000</i>
    <i name="BMIX_MAG">      1.00000000</i>
    <separator name="electronic mixer details" >
     <i type="int" name="IMIX">     4</i>
     <i type="logical" name="MIXFIRST"> F  </i>
     <i type="int" name="MAXMIX">   -45</i>
     <i name="WC">    100.00000000</i>
     <i type="int" name="INIMIX">     1</i>
     <i type="int" name="MIXPRE">     1</i>
     <i type="int" name="MREMOVE">     5</i>
    </separator>
   </separator>
   <separator name="electronic dipolcorrection" >
    <i type="logical" name="LDIPOL"> F  </i>
    <i type="logical" name="LMONO"> F  </i>
    <i type="int" name="IDIPOL">     0</i>
    <i name="EPSILON">      1.00000000</i>
    <v name="DIPOL">   -100.00000000   -100.00000000   -100.00000000</v>
    <i name="EFIELD">      0.00000000</i>
   </separator>
  </separator>
  <separator name="grids" >
   <i type="int" name="NGX">    42</i>
   <i type="int" name="NGY">    42</i>
   <i type="int" name="NGZ">   108</i>
   <i type="int" name="NGXF">    84</i>
   <i type="int" name="NGYF">    84</i>
   <i type="int" name="NGZF">   216</i>
   <i type="logical" name="ADDGRID"> F  </i>
  </separator>
  <separator name="ionic" >
   <i type="int" name="NSW">     0</i>
   <i type="int" name="IBRION">    -1</i>
   <i type="int" name="ISIF">     2</i>
   <i name="PSTRESS">      0.00000000</i>
   <i name="EDIFFG">      0.00001000</i>
   <i type="int" name="NFREE">     0</i>
   <i name="POTIM">      0.50000000</i>
   <i name="SMASS">     -3.00000000</i>
   <i name="SCALEE">      1.00000000</i>
  </separator>
  <separator name="ionic md" >
   <i name="TEBEG">      0.00010000</i>
   <i name="TEEND">      0.00010000</i>
   <i type="int" name="NBLOCK">     1</i>
   <i type="int" name="KBLOCK">     1</i>
   <i type="int" name="NPACO">   256</i>
   <i name="APACO">     16.00000000</i>
  </separator>
  <separator name="symmetry" >
   <i type="int" name="ISYM">     2</i>
   <i name="SYMPREC">      0.00001000</i>
  </separator>
  <separator name="dos" >
   <i type="logical" name="LORBIT"> F  </i>
   <v name="RWIGS">     -1.00000000     -1.00000000     -1.00000000</v>
   <i type="int" name="NEDOS">   301</i>
   <i name="EMIN">     10.00000000</i>
   <i name="EMAX">    -10.00000000</i>
   <i name="EFERMI">      0.00000000</i>
  </separator>
  <separator name="writing" >
   <i type="int" name="NWRITE">     2</i>
   <i type="logical" name="LWAVE"> F  </i>
   <i type="logical" name="LCHARG"> F  </i>
   <i type="logical" name="LPARD"> F  </i>
   <i type="logical" name="LVTOT"> F  </i>
   <i type="logical" name="LVHAR"> F  </i>
   <i type="logical" name="LELF"> F  </i>
   <i type="logical" name="LOPTICS"> F  </i>
   <v name="STM">      0.00000000      0.00000000      0.00000000      0.00000000      0.00000000      0.00000000      0.00000000</v>
  </separator>
  <separator name="performance" >
   <i type="int" name="NPAR">     5</i>
   <i type="int" name="NSIM">     4</i>
   <i type="int" name="NBLK">    -1</i>
   <i type="logical" name="LPLANE"> T  </i>
   <i type="logical" name="LSCALAPACK"> T  </i>
   <i type="logical" name="LSCAAWARE"> F  </i>
   <i type="logical" name="LSCALU"> F  </i>
   <i type="logical" name="LASYNC"> F  </i>
   <i type="logical" name="LORBITALREAL"> F  </i>
  </separator>
  <separator name="miscellaneous" >
   <i type="int" name="IDIOT">     3</i>
   <i type="logical" name="LMUSIC"> F  </i>
   <v name="POMASS">    195.08000000     12.01100000      1.00000000</v>
   <v name="DARWINR">      0.00000000      0.00000000      0.00000000</v>
   <v name="DARWINV">      1.00000000      1.00000000      1.00000000</v>
   <i type="logical" name="LCORR"> T  </i>
  </separator>
  <i type="logical" name="GGA_COMPAT"> T  </i>
  <i type="logical" name="LBERRY"> F  </i>
  <i type="int" name="ICORELEVEL">     0</i>
  <i type="logical" name="LDAU"> F  </i>
  <i type="int" name="I_CONSTRAINED_M">     0</i>
  <separator name="electronic exchange-correlation" >
   <i type="string" name="GGA">PE</i>
   <i type="int" name="VOSKOWN">     0</i>
   <i type="logical" name="LHFCALC"> F  </i>
   <i type="string" name="PRECFOCK"></i>
   <i type="logical" name="LSYMGRAD"> F  </i>
   <i type="logical" name="LHFONE"> F  </i>
   <i type="logical" name="LRHFCALC"> F  </i>
   <i type="logical" name="LTHOMAS"> F  </i>
   <i type="logical" name="LMODELHF"> F  </i>
   <i name="ENCUT4O">     -1.00000000</i>
   <i type="int" name="EXXOEP">     0</i>
   <i type="int" name="FOURORBIT">     0</i>
   <i name="AEXX">      0.00000000</i>
   <i name="HFALPHA">      0.00000000</i>
   <i name="MCALPHA">      0.00000000</i>
   <i name="ALDAX">      1.00000000</i>
   <i name="AGGAX">      1.00000000</i>
   <i name="ALDAC">      1.00000000</i>
   <i name="AGGAC">      1.00000000</i>
   <i type="int" name="NKREDX">     1</i>
   <i type="int" name="NKREDY">     1</i>
   <i type="int" name="NKREDZ">     1</i>
   <i type="logical" name="SHIFTRED"> F  </i>
   <i type="logical" name="ODDONLY"> F  </i>
   <i type="logical" name="EVENONLY"> F  </i>
   <i type="int" name="LMAXFOCK">     0</i>
   <i type="int" name="NMAXFOCKAE">     0</i>
   <i type="logical" name="LFOCKAEDFT"> F  </i>
   <i name="HFSCREEN">      0.00000000</i>
   <i name="HFSCREENC">      0.00000000</i>
   <i type="int" name="NBANDSGWLOW">     0</i>
  </separator>
  <separator name="vdW DFT" >
   <i type="logical" name="LUSE_VDW"> F  </i>
   <i name="Zab_VDW">     -0.84910000</i>
   <i name="PARAM1">      0.12340000</i>
   <i name="PARAM2">      1.00000000</i>
   <i name="PARAM3">      0.00000000</i>
  </separator>
  <separator name="model GW" >
   <i type="int" name="MODEL_GW">     0</i>
   <i name="MODEL_EPS0">     20.67204851</i>
   <i name="MODEL_ALPHA">      1.00000000</i>
  </separator>
  <separator name="linear response parameters" >
   <i type="logical" name="LEPSILON"> F  </i>
   <i type="logical" name="LRPA"> F  </i>
   <i type="logical" name="LNABLA"> F  </i>
   <i type="logical" name="LVEL"> F  </i>
   <i type="int" name="KINTER">     0</i>
   <i name="CSHIFT">      0.10000000</i>
   <i name="OMEGAMAX">     -1.00000000</i>
   <i name="DEG_THRESHOLD">      0.00200000</i>
  </separator>
  <separator name="orbital magnetization" >
   <i type="logical" name="NUCIND"> F  </i>
   <v name="MAGPOS">      0.00000000      0.00000000      0.00000000</v>
   <i type="logical" name="LNICSALL"> T  </i>
   <i type="logical" name="ORBITALMAG"> F  </i>
   <i type="logical" name="LMAGBLOCH"> F  </i>
   <i type="logical" name="LCHIMAG"> F  </i>
   <i type="logical" name="LGAUGE"> T  </i>
   <i type="int" name="MAGATOM">     0</i>
   <v name="MAGDIPOL">      0.00000000      0.00000000      0.00000000</v>
   <v name="AVECCONST">      0.00000000      0.00000000      0.00000000</v>
  </separator>
  <separator name="response functions" >
   <i type="logical" name="LADDER"> F  </i>
   <i type="logical" name="LFXC"> F  </i>
   <i type="logical" name="LHARTREE"> T  </i>
   <i type="int" name="IBSE">     0</i>
   <v type="int" name="KPOINT">    -1     0     0     0</v>
   <i type="logical" name="LTCTE"> F  </i>
   <i type="logical" name="LTETE"> F  </i>
   <i type="logical" name="LTRIPLET"> F  </i>
   <i type="logical" name="LFXCEPS"> F  </i>
   <i type="logical" name="LFXHEG"> F  </i>
   <i type="int" name="NATURALO">     0</i>
   <i type="logical" name="L2ORDER"> F  </i>
   <i type="logical" name="LUSEW"> F  </i>
   <i name="ENCUTGW">     -2.00000000</i>
   <i name="ENCUTGWSOFT">     -2.00000000</i>
   <i name="ENCUTLF">     -1.00000000</i>
   <i type="int" name="LMAXMP2">    -1</i>
   <i name="SCISSOR">      0.00000000</i>
   <i type="int" name="NOMEGA">     0</i>
   <i type="int" name="NOMEGAR">     0</i>
   <i type="int" name="NBANDSGW">    -1</i>
   <i type="int" name="NBANDSO">    -1</i>
   <i type="int" name="NBANDSV">    -1</i>
   <i type="int" name="NELM">     1</i>
   <i type="int" name="NELMHF">     1</i>
   <i type="int" name="DIM">     3</i>
   <i type="int" name="ANTIRES">     0</i>
   <i name="OMEGAMAX">    -30.00000000</i>
   <i name="OMEGAMIN">    -30.00000000</i>
   <i name="OMEGATL">   -200.00000000</i>
   <i type="int" name="OMEGAGRID">     0</i>
   <i name="CSHIFT">     -0.10000000</i>
   <i type="logical" name="SELFENERGY"> F  </i>
   <i type="logical" name="LSPECTRAL"> F  </i>
   <i type="logical" name="LSPECTRALGW"> F  </i>
   <i type="logical" name="LSINGLES"> F  </i>
   <i type="logical" name="LFERMIGW"> F  </i>
   <i type="logical" name="ODDONLYGW"> F  </i>
   <i type="logical" name="EVENONLYGW"> F  </i>
   <i type="int" name="NKREDLFX">     1</i>
   <i type="int" name="NKREDLFY">     1</i>
   <i type="int" name="NKREDLFZ">     1</i>
   <i type="int" name="MAXMEM">  1800</i>
   <i type="int" name="TELESCOPE">     0</i>
   <i type="int" name="TAUPAR">     1</i>
   <i type="int" name="OMEGAPAR">    -1</i>
   <i name="LAMBDA">      1.00000000</i>
  </separator>
  <separator name="External order field" >
   <i name="OFIELD_KAPPA">      0.00000000</i>
   <v name="OFIELD_K">      0.00000000      0.00000000      0.00000000</v>
   <i name="OFIELD_Q6_NEAR">      0.00000000</i>
   <i name="OFIELD_Q6_FAR">      0.00000000</i>
   <i name="OFIELD_A">      0.00000000</i>
  </separator>
 </parameters>
 <atominfo>
  <atoms>      39 </atoms>
  <types>       3 </types>
  <array name="atoms" >
   <dimension dim="1">ion</dimension>
   <field type="string">element</field>
   <field type="int">atomtype</field>
   <set>
    <rc><c>Pt</c><c>   1</c></rc>
    <rc><c>Pt</c><c>   1</c></rc>
    <rc><c>Pt</c><c>   1</c></rc>
    <rc><c>Pt</c><c>   1</c></rc>
    <rc><c>Pt</c><c>   1</c></rc>
    <rc><c>Pt</c><c>   1</c></rc>
    <rc><c>Pt</c><c>   1</c></rc>
    <rc><c>Pt</c><c>   1</c></rc>
    <rc><c>Pt</c><c>   1</c></rc>
    <rc><c>Pt</c><c>   1</c></rc>
    <rc><c>Pt</c><c>   1</c></rc>
    <rc><c>Pt</c><c>   1</c></rc>
    <rc><c>Pt</c><c>   1</c></rc>
    <rc><c>Pt</c><c>   1</c></rc>
    <rc><c>Pt</c><c>   1</c></rc>
    <rc><c>Pt</c><c>   1</c></rc>
    <rc><c>Pt</c><c>   1</c></rc>
    <rc><c>Pt</c><c>   1</c></rc>
    <rc><c>Pt</c><c>   1</c></rc>
    <rc><c>Pt</c><c>   1</c></rc>
    <rc><c>Pt</c><c>   1</c></rc>
    <rc><c>Pt</c><c>   1</c></rc>
    <rc><c>Pt</c><c>   1</c></rc>
    <rc><c>Pt</c><c>   1</c></rc>
    <rc><c>Pt</c><c>   1</c></rc>
    <rc><c>Pt</c><c>   1</c></rc>
    <rc><c>Pt</c><c>   1</c></rc>
    <rc><c>Pt</c><c>   1</c></rc>
    <rc><c>Pt</c><c>   1</c></rc>
    <rc><c>Pt</c><c>   1</c></rc>
    <rc><c>Pt</c><c>   1</c></rc>
    <rc><c>Pt</c><c>   1</c></rc>
    <rc><c>Pt</c><c>   1</c></rc>
    <rc><c>Pt</c><c>   1</c></rc>
    <rc><c>Pt</c><c>   1</c></rc>
    <rc><c>Pt</c><c>   1</c></rc>
    <rc><c>C </c><c>   2</c></rc>
    <rc><c>C </c><c>   2</c></rc>
    <rc><c>H </c><c>   3</c></rc>
   </set>
  </array>
  <array name="atomtypes" >
   <dimension dim="1">type</dimension>
   <field type="int">atomspertype</field>
   <field type="string">element</field>
   <field>mass</field>
   <field>valence</field>
   <field type="string">pseudopotential</field>
   <set>
    <rc><c>  36</c><c>Pt</c><c>    195.08000000</c><c>     10.00000000</c><c>  PAW_PBE Pt 04Feb2005                  </c></rc>
    <rc><c>   2</c><c>C </c><c>     12.01100000</c><c>      4.00000000</c><c>  PAW_PBE C 08Apr2002                   </c></rc>
    <rc><c>   1</c><c>H </c><c>      1.00000000</c><c>      1.00000000</c><c>  PAW_PBE H 15Jun2001                   </c></rc>
   </set>
  </array>
 </atominfo>
 <structure name="initialpos" >
  <crystal>
   <varray name="basis" >
    <v>       8.42164176       0.00000000       0.00000000 </v>
    <v>       4.21082088       7.29335571       0.00000000 </v>
    <v>       0.00000000       0.00000000      21.87624171 </v>
   </varray>
   <i name="volume">   1343.68315334 </i>
   <varray name="rec_basis" >
    <v>       0.11874169      -0.06855555       0.00000000 </v>
    <v>       0.00000000       0.13711110       0.00000000 </v>
    <v>       0.00000000       0.00000000       0.04571169 </v>
   </varray>
  </crystal>
  <varray name="positions" >
   <v>       0.00000000       0.00000000       0.34283768 </v>
   <v>       0.33333333       0.00000000       0.34283768 </v>
   <v>       0.66666667       0.00000000       0.34283768 </v>
   <v>       0.00000000       0.33333333       0.34283768 </v>
   <v>       0.33333333       0.33333333       0.34283768 </v>
   <v>       0.66666667       0.33333333       0.34283768 </v>
   <v>       0.00000000       0.66666667       0.34283768 </v>
   <v>       0.33333333       0.66666667       0.34283768 </v>
   <v>       0.66666667       0.66666667       0.34283768 </v>
   <v>       0.11111111       0.11111111       0.44761256 </v>
   <v>       0.44444444       0.11111111       0.44761256 </v>
   <v>       0.77777778       0.11111111       0.44761256 </v>
   <v>       0.11111111       0.44444444       0.44761256 </v>
   <v>       0.44444444       0.44444444       0.44761256 </v>
   <v>       0.77777778       0.44444444       0.44761256 </v>
   <v>       0.11111111       0.77777778       0.44761256 </v>
   <v>       0.44444444       0.77777778       0.44761256 </v>
   <v>       0.77777778       0.77777778       0.44761256 </v>
   <v>       0.88714077       0.22392945       0.55208032 </v>
   <v>       0.22297079       0.22324692       0.55161660 </v>
   <v>       0.55595078       0.22259753       0.55238561 </v>
   <v>       0.88938321       0.55594107       0.55057290 </v>
   <v>       0.22391612       0.55246867       0.55262860 </v>
   <v>       0.55722153       0.55397859       0.55203691 </v>
   <v>       0.88585255       0.89046121       0.55262677 </v>
   <v>       0.22265102       0.88922120       0.55008305 </v>
   <v>       0.55667331       0.88962339       0.55158730 </v>
   <v>       0.00695774       0.99846546       0.65604209 </v>
   <v>       0.33114597       0.99745697       0.65648795 </v>
   <v>       0.67614115       0.98795534       0.66157622 </v>
   <v>       0.00096940       0.33510869       0.65599162 </v>
   <v>       0.32171966       0.34223996       0.66168366 </v>
   <v>       0.67629492       0.34244037       0.66198868 </v>
   <v>       0.00144582       0.66763133       0.65607549 </v>
   <v>       0.33211025       0.67334710       0.65604380 </v>
   <v>       0.66878329       0.66740125       0.65600641 </v>
   <v>       0.48394774       0.14859719       0.73195829 </v>
   <v>       0.57132375       0.23935189       0.71427947 </v>
   <v>       0.44526070       0.10940571       0.77425990 </v>
  </varray>
  <varray name="selective"  type="logical" >
   <v type="logical" >  F  F  F </v>
   <v type="logical" >  F  F  F </v>
   <v type="logical" >  F  F  F </v>
   <v type="logical" >  F  F  F </v>
   <v type="logical" >  F  F  F </v>
   <v type="logical" >  F  F  F </v>
   <v type="logical" >  F  F  F </v>
   <v type="logical" >  F  F  F </v>
   <v type="logical" >  F  F  F </v>
   <v type="logical" >  F  F  F </v>
   <v type="logical" >  F  F  F </v>
   <v type="logical" >  F  F  F </v>
   <v type="logical" >  F  F  F </v>
   <v type="logical" >  F  F  F </v>
   <v type="logical" >  F  F  F </v>
   <v type="logical" >  F  F  F </v>
   <v type="logical" >  F  F  F </v>
   <v type="logical" >  F  F  F </v>
   <v type="logical" >  T  T  T </v>
   <v type="logical" >  T  T  T </v>
   <v type="logical" >  T  T  T </v>
   <v type="logical" >  T  T  T </v>
   <v type="logical" >  T  T  T </v>
   <v type="logical" >  T  T  T </v>
   <v type="logical" >  T  T  T </v>
   <v type="logical" >  T  T  T </v>
   <v type="logical" >  T  T  T </v>
   <v type="logical" >  T  T  T </v>
   <v type="logical" >  T  T  T </v>
   <v type="logical" >  T  T  T </v>
   <v type="logical" >  T  T  T </v>
   <v type="logical" >  T  T  T </v>
   <v type="logical" >  T  T  T </v>
   <v type="logical" >  T  T  T </v>
   <v type="logical" >  T  T  T </v>
   <v type="logical" >  T  T  T </v>
   <v type="logical" >  T  T  T </v>
   <v type="logical" >  T  T  T </v>
   <v type="logical" >  T  T  T </v>
  </varray>
  <nose>
   <v>      -3.00000000       0.00000000       0.00010000       0.00010000 </v>
  </nose>
 </structure>
 <calculation>
  <scstep>
   <time name="dav">   70.30   70.27</time>
   <time name="total">   70.37   70.38</time>
   <energy>
    <i name="alphaZ">    951.71918362 </i>
    <i name="ewald">  93141.02482012 </i>
    <i name="hartreedc">-121535.75873161 </i>
    <i name="XCdc">    150.16199244 </i>
    <i name="pawpsdc">  25279.62539561 </i>
    <i name="pawaedc"> -24262.57642893 </i>
    <i name="eentropy">     -0.56571305 </i>
    <i name="bandstr">   1924.35587501 </i>
    <i name="atom">  26554.76334551 </i>
    <i name="e_fr_energy">   2202.74973872 </i>
    <i name="e_wo_entrp">   2203.31545177 </i>
    <i name="e_0_energy">   2203.03259524 </i>
   </energy>
  </scstep>
  <scstep>
   <time name="dav">   83.27   84.38</time>
   <time name="total">   83.27   84.47</time>
   <energy>
    <i name="e_fr_energy">    -83.33787372 </i>
    <i name="e_wo_entrp">    -82.24031155 </i>
    <i name="e_0_energy">    -82.78909263 </i>
   </energy>
  </scstep>
  <scstep>
   <time name="dav">   85.63   86.08</time>
   <time name="total">   85.63   86.15</time>
   <energy>
    <i name="e_fr_energy">   -240.13849084 </i>
    <i name="e_wo_entrp">   -238.25433737 </i>
    <i name="e_0_energy">   -239.19641410 </i>
   </energy>
  </scstep>
  <scstep>
   <time name="dav">   89.36   89.41</time>
   <time name="total">   91.71   91.85</time>
   <energy>
    <i name="e_fr_energy">   -246.85269550 </i>
    <i name="e_wo_entrp">   -244.91597745 </i>
    <i name="e_0_energy">   -245.88433648 </i>
   </energy>
  </scstep>
  <scstep>
   <time name="diag">   13.68   13.69</time>
   <time name="diis">   28.70   28.73</time>
   <time name="orth">    3.02    3.02</time>
   <time name="total">   49.27   49.67</time>
   <energy>
    <i name="e_fr_energy">   -235.96887747 </i>
    <i name="e_wo_entrp">   -234.02725328 </i>
    <i name="e_0_energy">   -234.99806537 </i>
   </energy>
  </scstep>
  <scstep>
   <time name="diag">   10.79   10.80</time>
   <time name="diis">   30.21   30.27</time>
   <time name="orth">    2.96    3.05</time>
   <time name="total">   46.39   46.57</time>
   <energy>
    <i name="e_fr_energy">   -284.38923643 </i>
    <i name="e_wo_entrp">   -283.21136034 </i>
    <i name="e_0_energy">   -283.80029839 </i>
   </energy>
  </scstep>
  <scstep>
   <time name="diag">   11.10   11.13</time>
   <time name="diis">   28.21   28.39</time>
   <time name="orth">    3.11    3.14</time>
   <time name="total">   45.46   45.78</time>
   <energy>
    <i name="e_fr_energy">   -243.18285467 </i>
    <i name="e_wo_entrp">   -241.62352634 </i>
    <i name="e_0_energy">   -242.40319051 </i>
   </energy>
  </scstep>
  <scstep>
   <time name="diag">   10.95   11.08</time>
   <time name="diis">   28.88   29.34</time>
   <time name="orth">    2.98    3.05</time>
   <time name="total">   45.15   45.90</time>
   <energy>
    <i name="e_fr_energy">   -243.61606125 </i>
    <i name="e_wo_entrp">   -242.27316662 </i>
    <i name="e_0_energy">   -242.94461393 </i>
   </energy>
  </scstep>
  <scstep>
   <time name="diag">   10.90   10.92</time>
   <time name="diis">   30.07   30.28</time>
   <time name="orth">    3.16    3.16</time>
   <time name="total">   46.98   47.38</time>
   <energy>
    <i name="e_fr_energy">   -239.63606359 </i>
    <i name="e_wo_entrp">   -237.72571236 </i>
    <i name="e_0_energy">   -238.68088798 </i>
   </energy>
  </scstep>
  <scstep>
   <time name="diag">   10.92   10.93</time>
   <time name="diis">   29.16   29.16</time>
   <time name="orth">    3.07    3.13</time>
   <time name="total">   45.48   45.62</time>
   <energy>
    <i name="e_fr_energy">   -230.71582872 </i>
    <i name="e_wo_entrp">   -228.71437178 </i>
    <i name="e_0_energy">   -229.71510025 </i>
   </energy>
  </scstep>
  <scstep>
   <time name="diag">   11.30   11.38</time>
   <time name="diis">   28.58   28.82</time>
   <time name="orth">    2.97    2.99</time>
   <time name="total">   46.93   47.32</time>
   <energy>
    <i name="e_fr_energy">   -230.57273655 </i>
    <i name="e_wo_entrp">   -228.47665945 </i>
    <i name="e_0_energy">   -229.52469800 </i>
   </energy>
  </scstep>
  <scstep>
   <time name="diag">   10.86   10.88</time>
   <time name="diis">   30.34   30.74</time>
   <time name="orth">    3.10    3.14</time>
   <time name="total">   46.74   47.22</time>
   <energy>
    <i name="e_fr_energy">   -230.00629427 </i>
    <i name="e_wo_entrp">   -227.92893567 </i>
    <i name="e_0_energy">   -228.96761497 </i>
   </energy>
  </scstep>
  <scstep>
   <time name="diag">   10.74   10.91</time>
   <time name="diis">   30.46   30.69</time>
   <time name="orth">    2.96    2.99</time>
   <time name="total">   48.27   48.76</time>
   <energy>
    <i name="e_fr_energy">   -229.89712574 </i>
    <i name="e_wo_entrp">   -227.83660816 </i>
    <i name="e_0_energy">   -228.86686695 </i>
   </energy>
  </scstep>
  <scstep>
   <time name="diag">   10.86   11.08</time>
   <time name="diis">   29.88   30.26</time>
   <time name="orth">    3.02    3.03</time>
   <time name="total">   46.09   46.80</time>
   <energy>
    <i name="e_fr_energy">   -229.87563957 </i>
    <i name="e_wo_entrp">   -227.81118142 </i>
    <i name="e_0_energy">   -228.84341049 </i>
   </energy>
  </scstep>
  <scstep>
   <time name="diag">   10.79   10.79</time>
   <time name="diis">   29.92   30.02</time>
   <time name="orth">    3.01    3.04</time>
   <time name="total">   46.88   47.17</time>
   <energy>
    <i name="e_fr_energy">   -229.85499342 </i>
    <i name="e_wo_entrp">   -227.78242815 </i>
    <i name="e_0_energy">   -228.81871078 </i>
   </energy>
  </scstep>
  <scstep>
   <time name="diag">   10.78   10.79</time>
   <time name="diis">   28.68   29.13</time>
   <time name="orth">    3.09    3.10</time>
   <time name="total">   44.92   45.40</time>
   <energy>
    <i name="e_fr_energy">   -229.84153225 </i>
    <i name="e_wo_entrp">   -227.75514717 </i>
    <i name="e_0_energy">   -228.79833971 </i>
   </energy>
  </scstep>
  <scstep>
   <time name="diag">   10.89   10.88</time>
   <time name="diis">   29.15   29.15</time>
   <time name="orth">    2.98    2.99</time>
   <time name="total">   46.21   46.23</time>
   <energy>
    <i name="e_fr_energy">   -229.83103752 </i>
    <i name="e_wo_entrp">   -227.74611128 </i>
    <i name="e_0_energy">   -228.78857440 </i>
   </energy>
  </scstep>
  <scstep>
   <time name="diag">   10.77   10.91</time>
   <time name="diis">   29.13   29.30</time>
   <time name="orth">    6.52    6.53</time>
   <time name="total">   48.76   49.11</time>
   <energy>
    <i name="e_fr_energy">   -229.83031432 </i>
    <i name="e_wo_entrp">   -227.74703661 </i>
    <i name="e_0_energy">   -228.78867547 </i>
   </energy>
  </scstep>
  <scstep>
   <time name="diag">   11.11   11.15</time>
   <time name="diis">   29.16   29.42</time>
   <time name="orth">    3.01    3.03</time>
   <time name="total">   45.61   46.00</time>
   <energy>
    <i name="e_fr_energy">   -229.82992332 </i>
    <i name="e_wo_entrp">   -227.74680910 </i>
    <i name="e_0_energy">   -228.78836621 </i>
   </energy>
  </scstep>
  <scstep>
   <time name="diag">   11.01   11.05</time>
   <time name="diis">   29.20   29.30</time>
   <time name="orth">    3.04    3.05</time>
   <time name="total">   45.67   45.83</time>
   <energy>
    <i name="e_fr_energy">   -229.82933218 </i>
    <i name="e_wo_entrp">   -227.74628969 </i>
    <i name="e_0_energy">   -228.78781093 </i>
   </energy>
  </scstep>
  <scstep>
   <time name="diag">   10.81   10.83</time>
   <time name="diis">   29.45   29.54</time>
   <time name="orth">    2.96    2.97</time>
   <time name="total">   45.99   46.36</time>
   <energy>
    <i name="e_fr_energy">   -229.82922785 </i>
    <i name="e_wo_entrp">   -227.74597163 </i>
    <i name="e_0_energy">   -228.78759974 </i>
   </energy>
  </scstep>
  <scstep>
   <time name="diag">   10.86   10.87</time>
   <time name="diis">   29.11   29.09</time>
   <time name="orth">    3.05    3.06</time>
   <time name="total">   45.50   45.52</time>
   <energy>
    <i name="e_fr_energy">   -229.82917656 </i>
    <i name="e_wo_entrp">   -227.74587410 </i>
    <i name="e_0_energy">   -228.78752533 </i>
   </energy>
  </scstep>
  <scstep>
   <time name="diag">   11.08   11.14</time>
   <time name="diis">   29.34   29.34</time>
   <time name="orth">    3.45    3.53</time>
   <time name="total">   47.06   47.23</time>
   <energy>
    <i name="e_fr_energy">   -229.82918924 </i>
    <i name="e_wo_entrp">   -227.74558512 </i>
    <i name="e_0_energy">   -228.78738718 </i>
   </energy>
  </scstep>
  <scstep>
   <time name="diag">   11.69   11.73</time>
   <time name="diis">   28.15   28.40</time>
   <time name="orth">    3.07    3.07</time>
   <time name="total">   45.33   45.63</time>
   <energy>
    <i name="e_fr_energy">   -229.82935798 </i>
    <i name="e_wo_entrp">   -227.74517641 </i>
    <i name="e_0_energy">   -228.78726719 </i>
   </energy>
  </scstep>
  <scstep>
   <time name="diag">   10.76   10.78</time>
   <time name="diis">   29.34   29.32</time>
   <time name="orth">    2.90    2.94</time>
   <time name="total">   46.13   46.51</time>
   <energy>
    <i name="e_fr_energy">   -229.82953086 </i>
    <i name="e_wo_entrp">   -227.74513327 </i>
    <i name="e_0_energy">   -228.78733207 </i>
   </energy>
  </scstep>
  <scstep>
   <time name="diag">   10.77   10.76</time>
   <time name="diis">   29.32   29.30</time>
   <time name="orth">    2.99    2.99</time>
   <time name="total">   45.49   45.48</time>
   <energy>
    <i name="e_fr_energy">   -229.82973606 </i>
    <i name="e_wo_entrp">   -227.74564117 </i>
    <i name="e_0_energy">   -228.78768862 </i>
   </energy>
  </scstep>
  <scstep>
   <time name="diag">   11.00   11.00</time>
   <time name="diis">   29.75   29.75</time>
   <time name="orth">    2.96    2.98</time>
   <time name="total">   46.12   46.16</time>
   <energy>
    <i name="e_fr_energy">   -229.82990054 </i>
    <i name="e_wo_entrp">   -227.74593826 </i>
    <i name="e_0_energy">   -228.78791940 </i>
   </energy>
  </scstep>
  <scstep>
   <time name="diag">   10.68   10.85</time>
   <time name="diis">   28.03   28.27</time>
   <time name="orth">    2.98    3.04</time>
   <time name="total">   44.06   44.61</time>
   <energy>
    <i name="e_fr_energy">   -229.83003777 </i>
    <i name="e_wo_entrp">   -227.74617927 </i>
    <i name="e_0_energy">   -228.78810852 </i>
   </energy>
  </scstep>
  <scstep>
   <time name="diag">   10.93   11.02</time>
   <time name="diis">   26.38   26.46</time>
   <time name="orth">    3.09    3.09</time>
   <time name="total">   42.87   43.05</time>
   <energy>
    <i name="e_fr_energy">   -229.83019561 </i>
    <i name="e_wo_entrp">   -227.74636077 </i>
    <i name="e_0_energy">   -228.78827819 </i>
   </energy>
  </scstep>
  <scstep>
   <time name="diag">   10.81   10.85</time>
   <time name="diis">   21.96   22.29</time>
   <time name="orth">    3.56    3.94</time>
   <time name="total">   38.73   39.49</time>
   <energy>
    <i name="e_fr_energy">   -229.83030680 </i>
    <i name="e_wo_entrp">   -227.74643157 </i>
    <i name="e_0_energy">   -228.78836918 </i>
   </energy>
  </scstep>
  <scstep>
   <time name="diag">   12.43   12.53</time>
   <time name="diis">   21.77   21.85</time>
   <time name="orth">    2.97    2.99</time>
   <time name="total">   41.24   41.49</time>
   <energy>
    <i name="e_fr_energy">   -229.83044331 </i>
    <i name="e_wo_entrp">   -227.74650535 </i>
    <i name="e_0_energy">   -228.78847433 </i>
   </energy>
  </scstep>
  <scstep>
   <time name="diag">   10.70   10.91</time>
   <time name="diis">   18.92   19.01</time>
   <time name="orth">    3.00    3.11</time>
   <time name="total">   35.02   35.49</time>
   <energy>
    <i name="e_fr_energy">   -229.83047570 </i>
    <i name="e_wo_entrp">   -227.74655747 </i>
    <i name="e_0_energy">   -228.78851658 </i>
   </energy>
  </scstep>
  <scstep>
   <time name="diag">   10.86   10.91</time>
   <time name="diis">   18.98   19.02</time>
   <time name="orth">    3.32    3.36</time>
   <time name="total">   36.99   37.18</time>
   <energy>
    <i name="e_fr_energy">   -229.83054110 </i>
    <i name="e_wo_entrp">   -227.74663258 </i>
    <i name="e_0_energy">   -228.78858684 </i>
   </energy>
  </scstep>
  <scstep>
   <time name="diag">   10.86   10.97</time>
   <time name="diis">   17.98   18.11</time>
   <time name="orth">    2.99    3.00</time>
   <time name="total">   34.29   34.57</time>
   <energy>
    <i name="e_fr_energy">   -229.83057199 </i>
    <i name="e_wo_entrp">   -227.74664744 </i>
    <i name="e_0_energy">   -228.78860972 </i>
   </energy>
  </scstep>
  <scstep>
   <time name="diag">   10.96   10.97</time>
   <time name="diis">   16.79   16.79</time>
   <time name="orth">    3.00    3.02</time>
   <time name="total">   33.27   33.31</time>
   <energy>
    <i name="e_fr_energy">   -229.83058714 </i>
    <i name="e_wo_entrp">   -227.74666465 </i>
    <i name="e_0_energy">   -228.78862589 </i>
   </energy>
  </scstep>
  <scstep>
   <time name="diag">   10.90   10.96</time>
   <time name="diis">   15.60   15.74</time>
   <time name="orth">    2.99    3.05</time>
   <time name="total">   32.41   32.85</time>
   <energy>
    <i name="e_fr_energy">   -229.83059132 </i>
    <i name="e_wo_entrp">   -227.74667219 </i>
    <i name="e_0_energy">   -228.78863175 </i>
   </energy>
  </scstep>
  <scstep>
   <time name="diag">   10.96   10.95</time>
   <time name="diis">   17.03   17.02</time>
   <time name="orth">    3.21    3.25</time>
   <time name="total">   34.03   34.21</time>
   <energy>
    <i name="e_fr_energy">   -229.83059665 </i>
    <i name="e_wo_entrp">   -227.74667058 </i>
    <i name="e_0_energy">   -228.78863362 </i>
   </energy>
  </scstep>
  <scstep>
   <time name="diag">   10.51   10.77</time>
   <time name="diis">   14.14   14.26</time>
   <time name="orth">    2.97    3.04</time>
   <time name="total">   30.09   30.56</time>
   <energy>
    <i name="e_fr_energy">   -229.83059818 </i>
    <i name="e_wo_entrp">   -227.74666973 </i>
    <i name="e_0_energy">   -228.78863395 </i>
   </energy>
  </scstep>
  <scstep>
   <time name="diag">   10.95   10.99</time>
   <time name="diis">   13.78   13.94</time>
   <time name="orth">    3.06    3.08</time>
   <time name="total">   28.72   28.95</time>
   <energy>
    <i name="alphaZ">    951.71918362 </i>
    <i name="ewald">  93141.02482012 </i>
    <i name="hartreedc">-121239.82735360 </i>
    <i name="XCdc">    138.62723063 </i>
    <i name="pawpsdc">  32559.96847193 </i>
    <i name="pawaedc"> -31642.24306904 </i>
    <i name="eentropy">     -2.08392843 </i>
    <i name="bandstr">   -691.77929968 </i>
    <i name="atom">  26554.76334551 </i>
    <i name="e_fr_energy">   -229.83059895 </i>
    <i name="e_wo_entrp">   -227.74667052 </i>
    <i name="e_0_energy">   -228.78863474 </i>
   </energy>
  </scstep>
  <structure>
   <crystal>
    <varray name="basis" >
     <v>       8.42164176       0.00000000       0.00000000 </v>
     <v>       4.21082088       7.29335571       0.00000000 </v>
     <v>       0.00000000       0.00000000      21.87624171 </v>
    </varray>
    <i name="volume">   1343.68315334 </i>
    <varray name="rec_basis" >
     <v>       0.11874169      -0.06855555       0.00000000 </v>
     <v>       0.00000000       0.13711110       0.00000000 </v>
     <v>       0.00000000       0.00000000       0.04571169 </v>
    </varray>
   </crystal>
   <varray name="positions" >
    <v>       0.00000000       0.00000000       0.34283768 </v>
    <v>       0.33333333       0.00000000       0.34283768 </v>
    <v>       0.66666667       0.00000000       0.34283768 </v>
    <v>       0.00000000       0.33333333       0.34283768 </v>
    <v>       0.33333333       0.33333333       0.34283768 </v>
    <v>       0.66666667       0.33333333       0.34283768 </v>
    <v>       0.00000000       0.66666667       0.34283768 </v>
    <v>       0.33333333       0.66666667       0.34283768 </v>
    <v>       0.66666667       0.66666667       0.34283768 </v>
    <v>       0.11111111       0.11111111       0.44761256 </v>
    <v>       0.44444444       0.11111111       0.44761256 </v>
    <v>       0.77777778       0.11111111       0.44761256 </v>
    <v>       0.11111111       0.44444444       0.44761256 </v>
    <v>       0.44444444       0.44444444       0.44761256 </v>
    <v>       0.77777778       0.44444444       0.44761256 </v>
    <v>       0.11111111       0.77777778       0.44761256 </v>
    <v>       0.44444444       0.77777778       0.44761256 </v>
    <v>       0.77777778       0.77777778       0.44761256 </v>
    <v>       0.88714077       0.22392945       0.55208032 </v>
    <v>       0.22297079       0.22324692       0.55161660 </v>
    <v>       0.55595078       0.22259753       0.55238561 </v>
    <v>       0.88938321       0.55594107       0.55057290 </v>
    <v>       0.22391612       0.55246867       0.55262860 </v>
    <v>       0.55722153       0.55397859       0.55203691 </v>
    <v>       0.88585255       0.89046121       0.55262677 </v>
    <v>       0.22265102       0.88922120       0.55008305 </v>
    <v>       0.55667331       0.88962339       0.55158730 </v>
    <v>       0.00695774       0.99846546       0.65604209 </v>
    <v>       0.33114597       0.99745697       0.65648795 </v>
    <v>       0.67614115       0.98795534       0.66157622 </v>
    <v>       0.00096940       0.33510869       0.65599162 </v>
    <v>       0.32171966       0.34223996       0.66168366 </v>
    <v>       0.67629492       0.34244037       0.66198868 </v>
    <v>       0.00144582       0.66763133       0.65607549 </v>
    <v>       0.33211025       0.67334710       0.65604380 </v>
    <v>       0.66878329       0.66740125       0.65600641 </v>
    <v>       0.48394774       0.14859719       0.73195829 </v>
    <v>       0.57132375       0.23935189       0.71427947 </v>
    <v>       0.44526070       0.10940571       0.77425990 </v>
   </varray>
  </structure>
  <varray name="forces" >
   <v>      -0.01245975       0.04651144      -0.07757724 </v>
   <v>       0.01848908       0.00993217      -0.09670768 </v>
   <v>       0.00132232       0.00071353      -0.06705438 </v>
   <v>      -0.00787472      -0.01446177      -0.06041164 </v>
   <v>       0.00088385       0.00095994      -0.06599597 </v>
   <v>      -0.00231310      -0.00070661      -0.08688126 </v>
   <v>      -0.00660301      -0.00335244      -0.02580565 </v>
   <v>       0.03495731      -0.03365331      -0.07868979 </v>
   <v>      -0.01655487       0.00088119      -0.06124261 </v>
   <v>      -0.00419747      -0.02100838      -0.04264943 </v>
   <v>      -0.02041404      -0.00950828       0.09957147 </v>
   <v>       0.03061252      -0.05034578       0.14919388 </v>
   <v>       0.07871296       0.00194234       0.07927231 </v>
   <v>      -0.02867497       0.05059281       0.14789758 </v>
   <v>      -0.05561414      -0.03302729       0.10271468 </v>
   <v>      -0.01317833      -0.00829149       0.06566777 </v>
   <v>      -0.02047772       0.00995542      -0.04769487 </v>
   <v>       0.04244287       0.06639982       0.07765475 </v>
   <v>       0.00648716       0.00378824      -0.00775687 </v>
   <v>      -0.00049528       0.00193252       0.00126991 </v>
   <v>       0.00302319       0.00285759       0.00184022 </v>
   <v>      -0.00323624      -0.00093366      -0.00026079 </v>
   <v>      -0.00518639      -0.00199148      -0.00273305 </v>
   <v>       0.00757132      -0.00622632      -0.00120580 </v>
   <v>       0.00300143      -0.00468738      -0.00078753 </v>
   <v>      -0.00312620       0.00312003      -0.00493934 </v>
   <v>      -0.00497636      -0.00531403       0.00184421 </v>
   <v>      -0.00182430       0.00179584       0.00278578 </v>
   <v>      -0.00203365       0.00062511       0.00113271 </v>
   <v>       0.00107294       0.00256522       0.00295482 </v>
   <v>       0.00474427       0.00317787      -0.00068491 </v>
   <v>      -0.00659439       0.01034119      -0.00389190 </v>
   <v>      -0.00858883      -0.00633397       0.01280942 </v>
   <v>      -0.00051449      -0.00289985       0.00656756 </v>
   <v>      -0.00015593      -0.00496659       0.00083213 </v>
   <v>      -0.00299809      -0.00081806      -0.00410943 </v>
   <v>       0.00099881      -0.00244638      -0.01033695 </v>
   <v>       0.00788845      -0.00255246      -0.01569689 </v>
   <v>      -0.01411625      -0.00456676       0.00910479 </v>
  </varray>
  <varray name="stress" >
   <v>     -35.37220282       0.71522977      -0.27359938 </v>
   <v>       0.71522986     -36.27155466      -0.13636438 </v>
   <v>      -0.27359936      -0.13636435       0.03709660 </v>
  </varray>
  <energy>
   <i name="e_fr_energy">   -229.83059895 </i>
   <i name="e_wo_entrp">   -228.78863474 </i>
   <i name="e_0_energy">     -2.08392843 </i>
  </energy>
  <time name="totalsc"> 1876.38 1889.87</time>
  <eigenvalues>
   <array>
    <dimension dim="1">band</dimension>
    <dimension dim="2">kpoint</dimension>
    <dimension dim="3">spin</dimension>
    <field>eigene</field>
    <field>occ</field>
    <set>
     <set comment="spin 1">
      <set comment="kpoint 1">
       <r>  -14.6294    1.0000 </r>
       <r>   -8.7190    1.0000 </r>
       <r>   -7.8082    1.0000 </r>
       <r>   -6.5864    1.0000 </r>
       <r>   -6.2661    1.0000 </r>
       <r>   -5.7043    1.0000 </r>
       <r>   -5.6490    1.0000 </r>
       <r>   -5.5098    1.0000 </r>
       <r>   -5.3940    1.0000 </r>
       <r>   -5.3458    1.0000 </r>
       <r>   -5.3272    1.0000 </r>
       <r>   -5.2342    1.0000 </r>
       <r>   -5.1859    1.0000 </r>
       <r>   -5.1357    1.0000 </r>
       <r>   -4.8431    1.0000 </r>
       <r>   -4.7695    1.0000 </r>
       <r>   -4.7560    1.0000 </r>
       <r>   -4.7539    1.0000 </r>
       <r>   -4.6968    1.0000 </r>
       <r>   -4.6004    1.0000 </r>
       <r>   -4.5897    1.0000 </r>
       <r>   -4.3373    1.0000 </r>
       <r>   -4.3176    1.0000 </r>
       <r>   -4.2883    1.0000 </r>
       <r>   -4.1861    1.0000 </r>
       <r>   -4.1730    1.0000 </r>
       <r>   -4.1548    1.0000 </r>
       <r>   -4.0731    1.0000 </r>
       <r>   -4.0448    1.0000 </r>
       <r>   -4.0240    1.0000 </r>
       <r>   -3.9472    1.0000 </r>
       <r>   -3.9444    1.0000 </r>
       <r>   -3.9256    1.0000 </r>
       <r>   -3.8930    1.0000 </r>
       <r>   -3.8858    1.0000 </r>
       <r>   -3.8421    1.0000 </r>
       <r>   -3.8375    1.0000 </r>
       <r>   -3.8146    1.0000 </r>
       <r>   -3.8048    1.0000 </r>
       <r>   -3.7681    1.0000 </r>
       <r>   -3.7462    1.0000 </r>
       <r>   -3.7287    1.0000 </r>
       <r>   -3.6060    1.0000 </r>
       <r>   -3.5523    1.0000 </r>
       <r>   -3.4188    1.0000 </r>
       <r>   -3.2514    1.0000 </r>
       <r>   -3.2412    1.0000 </r>
       <r>   -3.1991    1.0000 </r>
       <r>   -3.1746    1.0000 </r>
       <r>   -3.1364    1.0000 </r>
       <r>   -3.1262    1.0000 </r>
       <r>   -3.1066    1.0000 </r>
       <r>   -3.0705    1.0000 </r>
       <r>   -3.0578    1.0000 </r>
       <r>   -2.9099    1.0000 </r>
       <r>   -2.8955    1.0000 </r>
       <r>   -2.8531    1.0000 </r>
       <r>   -2.8102    1.0000 </r>
       <r>   -2.7941    1.0000 </r>
       <r>   -2.4446    1.0000 </r>
       <r>   -2.4306    1.0000 </r>
       <r>   -2.3846    1.0000 </r>
       <r>   -2.3639    1.0000 </r>
       <r>   -2.3135    1.0000 </r>
       <r>   -2.2915    1.0000 </r>
       <r>   -2.2822    1.0000 </r>
       <r>   -2.2772    1.0000 </r>
       <r>   -2.2437    1.0000 </r>
       <r>   -2.2144    1.0000 </r>
       <r>   -2.2037    1.0000 </r>
       <r>   -2.1713    1.0000 </r>
       <r>   -2.1289    1.0000 </r>
       <r>   -2.1217    1.0000 </r>
       <r>   -2.0742    1.0000 </r>
       <r>   -2.0722    1.0000 </r>
       <r>   -2.0572    1.0000 </r>
       <r>   -2.0112    1.0000 </r>
       <r>   -1.9953    1.0000 </r>
       <r>   -1.9659    1.0000 </r>
       <r>   -1.9462    1.0000 </r>
       <r>   -1.9197    1.0000 </r>
       <r>   -1.9188    1.0000 </r>
       <r>   -1.9017    1.0000 </r>
       <r>   -1.8454    1.0000 </r>
       <r>   -1.8308    1.0000 </r>
       <r>   -1.8122    1.0000 </r>
       <r>   -1.8085    1.0000 </r>
       <r>   -1.7823    1.0000 </r>
       <r>   -1.6977    1.0000 </r>
       <r>   -1.6697    1.0000 </r>
       <r>   -1.6401    1.0000 </r>
       <r>   -1.6393    1.0000 </r>
       <r>   -1.6054    1.0000 </r>
       <r>   -1.5973    1.0000 </r>
       <r>   -1.5901    1.0000 </r>
       <r>   -1.5614    1.0000 </r>
       <r>   -1.5452    1.0000 </r>
       <r>   -1.5209    1.0000 </r>
       <r>   -1.5075    1.0000 </r>
       <r>   -1.4996    1.0000 </r>
       <r>   -1.4657    1.0000 </r>
       <r>   -1.4321    1.0000 </r>
       <r>   -1.4298    1.0000 </r>
       <r>   -1.3664    1.0000 </r>
       <r>   -1.3163    1.0000 </r>
       <r>   -1.3095    1.0000 </r>
       <r>   -1.2634    1.0000 </r>
       <r>   -1.2613    1.0000 </r>
       <r>   -1.2605    1.0000 </r>
       <r>   -1.2114    1.0000 </r>
       <r>   -1.1829    1.0000 </r>
       <r>   -1.1603    1.0000 </r>
       <r>   -1.1156    1.0000 </r>
       <r>   -0.9811    1.0000 </r>
       <r>   -0.8811    1.0000 </r>
       <r>   -0.8182    1.0000 </r>
       <r>   -0.8009    1.0000 </r>
       <r>   -0.7753    1.0000 </r>
       <r>   -0.7138    1.0000 </r>
       <r>   -0.7041    1.0000 </r>
       <r>   -0.6551    1.0000 </r>
       <r>   -0.6510    1.0000 </r>
       <r>   -0.6360    1.0000 </r>
       <r>   -0.5730    1.0000 </r>
       <r>   -0.5691    1.0000 </r>
       <r>   -0.5159    1.0000 </r>
       <r>   -0.5033    1.0000 </r>
       <r>   -0.3886    1.0000 </r>
       <r>   -0.3351    1.0000 </r>
       <r>   -0.3287    1.0000 </r>
       <r>   -0.2694    1.0000 </r>
       <r>   -0.2126    1.0000 </r>
       <r>   -0.1335    1.0000 </r>
       <r>   -0.1168    1.0000 </r>
       <r>   -0.0998    1.0000 </r>
       <r>   -0.0849    1.0000 </r>
       <r>   -0.0699    1.0000 </r>
       <r>   -0.0464    1.0000 </r>
       <r>   -0.0090    1.0000 </r>
       <r>   -0.0071    1.0000 </r>
       <r>    0.0572    1.0000 </r>
       <r>    0.0794    1.0000 </r>
       <r>    0.1235    1.0000 </r>
       <r>    0.1449    1.0000 </r>
       <r>    0.2133    1.0000 </r>
       <r>    0.2147    1.0000 </r>
       <r>    0.2305    1.0000 </r>
       <r>    0.2511    1.0000 </r>
       <r>    0.2812    1.0000 </r>
       <r>    0.3684    1.0000 </r>
       <r>    0.3710    1.0000 </r>
       <r>    0.4335    0.9999 </r>
       <r>    0.4419    0.9999 </r>
       <r>    0.4780    0.9999 </r>
       <r>    0.5111    0.9999 </r>
       <r>    0.5285    0.9999 </r>
       <r>    0.5370    0.9999 </r>
       <r>    0.5433    0.9998 </r>
       <r>    0.5985    0.9997 </r>
       <r>    0.6031    0.9997 </r>
       <r>    0.6295    0.9996 </r>
       <r>    0.6547    0.9995 </r>
       <r>    0.6898    0.9993 </r>
       <r>    0.7073    0.9992 </r>
       <r>    0.7190    0.9991 </r>
       <r>    0.7381    0.9989 </r>
       <r>    0.7670    0.9986 </r>
       <r>    0.8158    0.9977 </r>
       <r>    0.8199    0.9976 </r>
       <r>    0.8417    0.9970 </r>
       <r>    0.8686    0.9960 </r>
       <r>    0.8701    0.9960 </r>
       <r>    0.8847    0.9954 </r>
       <r>    0.8854    0.9953 </r>
       <r>    0.9366    0.9922 </r>
       <r>    0.9372    0.9922 </r>
       <r>    0.9792    0.9881 </r>
       <r>    1.0329    0.9799 </r>
       <r>    1.0501    0.9762 </r>
       <r>    1.0605    0.9736 </r>
       <r>    1.0648    0.9725 </r>
       <r>    1.0913    0.9645 </r>
       <r>    1.1118    0.9568 </r>
       <r>    1.1201    0.9532 </r>
       <r>    1.1555    0.9346 </r>
       <r>    1.1902    0.9099 </r>
       <r>    1.1983    0.9031 </r>
       <r>    1.2079    0.8943 </r>
       <r>    1.2109    0.8914 </r>
       <r>    1.2304    0.8711 </r>
       <r>    1.2341    0.8668 </r>
       <r>    1.2713    0.8177 </r>
       <r>    1.4064    0.5375 </r>
       <r>    1.4197    0.5044 </r>
       <r>    1.4375    0.4599 </r>
       <r>    1.4601    0.4046 </r>
       <r>    1.4844    0.3476 </r>
       <r>    1.5264    0.2592 </r>
       <r>    1.5708    0.1833 </r>
       <r>    1.5878    0.1593 </r>
       <r>    1.9458    0.0053 </r>
       <r>    2.1236    0.0009 </r>
       <r>    2.2503    0.0003 </r>
       <r>    2.3144    0.0001 </r>
       <r>    2.4689    0.0000 </r>
       <r>    2.7795    0.0000 </r>
       <r>    2.7859    0.0000 </r>
       <r>    4.1040    0.0000 </r>
       <r>    4.3836    0.0000 </r>
       <r>    4.5888    0.0000 </r>
       <r>    4.6718    0.0000 </r>
       <r>    4.9127    0.0000 </r>
       <r>    4.9453    0.0000 </r>
       <r>    5.1693    0.0000 </r>
       <r>    5.3185    0.0000 </r>
       <r>    5.7569    0.0000 </r>
       <r>    5.8130    0.0000 </r>
       <r>    6.0184    0.0000 </r>
       <r>    6.2495    0.0000 </r>
       <r>    6.3278    0.0000 </r>
       <r>    6.5368    0.0000 </r>
       <r>    6.6326    0.0000 </r>
       <r>    6.6778    0.0000 </r>
       <r>    6.7554    0.0000 </r>
       <r>    6.8328    0.0000 </r>
      </set>
      <set comment="kpoint 2">
       <r>  -14.6294    1.0000 </r>
       <r>   -8.7191    1.0000 </r>
       <r>   -7.8087    1.0000 </r>
       <r>   -6.5877    1.0000 </r>
       <r>   -6.2645    1.0000 </r>
       <r>   -5.7312    1.0000 </r>
       <r>   -5.6453    1.0000 </r>
       <r>   -5.4741    1.0000 </r>
       <r>   -5.3934    1.0000 </r>
       <r>   -5.3497    1.0000 </r>
       <r>   -5.3271    1.0000 </r>
       <r>   -5.2453    1.0000 </r>
       <r>   -5.1941    1.0000 </r>
       <r>   -5.1320    1.0000 </r>
       <r>   -4.8289    1.0000 </r>
       <r>   -4.7845    1.0000 </r>
       <r>   -4.7553    1.0000 </r>
       <r>   -4.7332    1.0000 </r>
       <r>   -4.6927    1.0000 </r>
       <r>   -4.6198    1.0000 </r>
       <r>   -4.5819    1.0000 </r>
       <r>   -4.3490    1.0000 </r>
       <r>   -4.3054    1.0000 </r>
       <r>   -4.2866    1.0000 </r>
       <r>   -4.2111    1.0000 </r>
       <r>   -4.1631    1.0000 </r>
       <r>   -4.1306    1.0000 </r>
       <r>   -4.0774    1.0000 </r>
       <r>   -4.0580    1.0000 </r>
       <r>   -4.0083    1.0000 </r>
       <r>   -3.9778    1.0000 </r>
       <r>   -3.9314    1.0000 </r>
       <r>   -3.9219    1.0000 </r>
       <r>   -3.8901    1.0000 </r>
       <r>   -3.8774    1.0000 </r>
       <r>   -3.8669    1.0000 </r>
       <r>   -3.8222    1.0000 </r>
       <r>   -3.8167    1.0000 </r>
       <r>   -3.7977    1.0000 </r>
       <r>   -3.7772    1.0000 </r>
       <r>   -3.7568    1.0000 </r>
       <r>   -3.7036    1.0000 </r>
       <r>   -3.6018    1.0000 </r>
       <r>   -3.5706    1.0000 </r>
       <r>   -3.4245    1.0000 </r>
       <r>   -3.2630    1.0000 </r>
       <r>   -3.2447    1.0000 </r>
       <r>   -3.1913    1.0000 </r>
       <r>   -3.1633    1.0000 </r>
       <r>   -3.1499    1.0000 </r>
       <r>   -3.1352    1.0000 </r>
       <r>   -3.0997    1.0000 </r>
       <r>   -3.0650    1.0000 </r>
       <r>   -3.0418    1.0000 </r>
       <r>   -2.9101    1.0000 </r>
       <r>   -2.8945    1.0000 </r>
       <r>   -2.8617    1.0000 </r>
       <r>   -2.8198    1.0000 </r>
       <r>   -2.7808    1.0000 </r>
       <r>   -2.4544    1.0000 </r>
       <r>   -2.4235    1.0000 </r>
       <r>   -2.3875    1.0000 </r>
       <r>   -2.3605    1.0000 </r>
       <r>   -2.3243    1.0000 </r>
       <r>   -2.3013    1.0000 </r>
       <r>   -2.2853    1.0000 </r>
       <r>   -2.2670    1.0000 </r>
       <r>   -2.2275    1.0000 </r>
       <r>   -2.2149    1.0000 </r>
       <r>   -2.2047    1.0000 </r>
       <r>   -2.1644    1.0000 </r>
       <r>   -2.1477    1.0000 </r>
       <r>   -2.0991    1.0000 </r>
       <r>   -2.0843    1.0000 </r>
       <r>   -2.0656    1.0000 </r>
       <r>   -2.0397    1.0000 </r>
       <r>   -2.0143    1.0000 </r>
       <r>   -2.0073    1.0000 </r>
       <r>   -1.9846    1.0000 </r>
       <r>   -1.9429    1.0000 </r>
       <r>   -1.9243    1.0000 </r>
       <r>   -1.9153    1.0000 </r>
       <r>   -1.8957    1.0000 </r>
       <r>   -1.8739    1.0000 </r>
       <r>   -1.8377    1.0000 </r>
       <r>   -1.8254    1.0000 </r>
       <r>   -1.7903    1.0000 </r>
       <r>   -1.7693    1.0000 </r>
       <r>   -1.6811    1.0000 </r>
       <r>   -1.6586    1.0000 </r>
       <r>   -1.6505    1.0000 </r>
       <r>   -1.6318    1.0000 </r>
       <r>   -1.6180    1.0000 </r>
       <r>   -1.5985    1.0000 </r>
       <r>   -1.5851    1.0000 </r>
       <r>   -1.5616    1.0000 </r>
       <r>   -1.5390    1.0000 </r>
       <r>   -1.5156    1.0000 </r>
       <r>   -1.5110    1.0000 </r>
       <r>   -1.4962    1.0000 </r>
       <r>   -1.4643    1.0000 </r>
       <r>   -1.4340    1.0000 </r>
       <r>   -1.4297    1.0000 </r>
       <r>   -1.3609    1.0000 </r>
       <r>   -1.3360    1.0000 </r>
       <r>   -1.2847    1.0000 </r>
       <r>   -1.2675    1.0000 </r>
       <r>   -1.2621    1.0000 </r>
       <r>   -1.2608    1.0000 </r>
       <r>   -1.2194    1.0000 </r>
       <r>   -1.1876    1.0000 </r>
       <r>   -1.1354    1.0000 </r>
       <r>   -1.1056    1.0000 </r>
       <r>   -0.9490    1.0000 </r>
       <r>   -0.8985    1.0000 </r>
       <r>   -0.8425    1.0000 </r>
       <r>   -0.7846    1.0000 </r>
       <r>   -0.7605    1.0000 </r>
       <r>   -0.7298    1.0000 </r>
       <r>   -0.7141    1.0000 </r>
       <r>   -0.6717    1.0000 </r>
       <r>   -0.6518    1.0000 </r>
       <r>   -0.6343    1.0000 </r>
       <r>   -0.5706    1.0000 </r>
       <r>   -0.5397    1.0000 </r>
       <r>   -0.5236    1.0000 </r>
       <r>   -0.4895    1.0000 </r>
       <r>   -0.4470    1.0000 </r>
       <r>   -0.3511    1.0000 </r>
       <r>   -0.3156    1.0000 </r>
       <r>   -0.2632    1.0000 </r>
       <r>   -0.2107    1.0000 </r>
       <r>   -0.1279    1.0000 </r>
       <r>   -0.1155    1.0000 </r>
       <r>   -0.0916    1.0000 </r>
       <r>   -0.0840    1.0000 </r>
       <r>   -0.0688    1.0000 </r>
       <r>   -0.0531    1.0000 </r>
       <r>   -0.0147    1.0000 </r>
       <r>    0.0014    1.0000 </r>
       <r>    0.0401    1.0000 </r>
       <r>    0.0905    1.0000 </r>
       <r>    0.1219    1.0000 </r>
       <r>    0.1298    1.0000 </r>
       <r>    0.1956    1.0000 </r>
       <r>    0.2239    1.0000 </r>
       <r>    0.2477    1.0000 </r>
       <r>    0.2515    1.0000 </r>
       <r>    0.2904    1.0000 </r>
       <r>    0.3572    1.0000 </r>
       <r>    0.3739    1.0000 </r>
       <r>    0.4311    1.0000 </r>
       <r>    0.4386    0.9999 </r>
       <r>    0.4670    0.9999 </r>
       <r>    0.4839    0.9999 </r>
       <r>    0.5191    0.9999 </r>
       <r>    0.5366    0.9999 </r>
       <r>    0.5759    0.9998 </r>
       <r>    0.6069    0.9997 </r>
       <r>    0.6193    0.9997 </r>
       <r>    0.6287    0.9996 </r>
       <r>    0.6589    0.9995 </r>
       <r>    0.6790    0.9994 </r>
       <r>    0.7081    0.9992 </r>
       <r>    0.7198    0.9991 </r>
       <r>    0.7570    0.9987 </r>
       <r>    0.7707    0.9985 </r>
       <r>    0.8054    0.9979 </r>
       <r>    0.8176    0.9976 </r>
       <r>    0.8382    0.9971 </r>
       <r>    0.8505    0.9967 </r>
       <r>    0.8664    0.9961 </r>
       <r>    0.8700    0.9960 </r>
       <r>    0.8789    0.9956 </r>
       <r>    0.9447    0.9916 </r>
       <r>    0.9521    0.9909 </r>
       <r>    0.9828    0.9877 </r>
       <r>    1.0264    0.9811 </r>
       <r>    1.0409    0.9782 </r>
       <r>    1.0628    0.9731 </r>
       <r>    1.0791    0.9684 </r>
       <r>    1.0909    0.9646 </r>
       <r>    1.1117    0.9568 </r>
       <r>    1.1178    0.9542 </r>
       <r>    1.1557    0.9345 </r>
       <r>    1.1648    0.9287 </r>
       <r>    1.1974    0.9039 </r>
       <r>    1.2040    0.8980 </r>
       <r>    1.2108    0.8916 </r>
       <r>    1.2314    0.8700 </r>
       <r>    1.2396    0.8604 </r>
       <r>    1.3046    0.7629 </r>
       <r>    1.3831    0.5947 </r>
       <r>    1.4152    0.5157 </r>
       <r>    1.4485    0.4327 </r>
       <r>    1.4670    0.3880 </r>
       <r>    1.4854    0.3453 </r>
       <r>    1.5250    0.2621 </r>
       <r>    1.5378    0.2381 </r>
       <r>    1.6246    0.1160 </r>
       <r>    1.9357    0.0058 </r>
       <r>    2.1469    0.0007 </r>
       <r>    2.2404    0.0003 </r>
       <r>    2.3226    0.0001 </r>
       <r>    2.4646    0.0000 </r>
       <r>    2.7559    0.0000 </r>
       <r>    2.8044    0.0000 </r>
       <r>    4.1206    0.0000 </r>
       <r>    4.3954    0.0000 </r>
       <r>    4.5486    0.0000 </r>
       <r>    4.7712    0.0000 </r>
       <r>    4.8285    0.0000 </r>
       <r>    4.9501    0.0000 </r>
       <r>    5.1202    0.0000 </r>
       <r>    5.3787    0.0000 </r>
       <r>    5.7164    0.0000 </r>
       <r>    5.8024    0.0000 </r>
       <r>    6.1040    0.0000 </r>
       <r>    6.2211    0.0000 </r>
       <r>    6.3301    0.0000 </r>
       <r>    6.4942    0.0000 </r>
       <r>    6.6047    0.0000 </r>
       <r>    6.7435    0.0000 </r>
       <r>    6.7909    0.0000 </r>
       <r>    6.9699    0.0000 </r>
      </set>
      <set comment="kpoint 3">
       <r>  -14.6294    1.0000 </r>
       <r>   -8.7190    1.0000 </r>
       <r>   -7.8087    1.0000 </r>
       <r>   -6.5878    1.0000 </r>
       <r>   -6.2644    1.0000 </r>
       <r>   -5.7318    1.0000 </r>
       <r>   -5.6453    1.0000 </r>
       <r>   -5.4732    1.0000 </r>
       <r>   -5.3929    1.0000 </r>
       <r>   -5.3503    1.0000 </r>
       <r>   -5.3271    1.0000 </r>
       <r>   -5.2457    1.0000 </r>
       <r>   -5.1943    1.0000 </r>
       <r>   -5.1320    1.0000 </r>
       <r>   -4.8285    1.0000 </r>
       <r>   -4.7848    1.0000 </r>
       <r>   -4.7552    1.0000 </r>
       <r>   -4.7333    1.0000 </r>
       <r>   -4.6917    1.0000 </r>
       <r>   -4.6208    1.0000 </r>
       <r>   -4.5820    1.0000 </r>
       <r>   -4.3494    1.0000 </r>
       <r>   -4.3052    1.0000 </r>
       <r>   -4.2864    1.0000 </r>
       <r>   -4.2118    1.0000 </r>
       <r>   -4.1621    1.0000 </r>
       <r>   -4.1301    1.0000 </r>
       <r>   -4.0778    1.0000 </r>
       <r>   -4.0587    1.0000 </r>
       <r>   -4.0083    1.0000 </r>
       <r>   -3.9778    1.0000 </r>
       <r>   -3.9315    1.0000 </r>
       <r>   -3.9221    1.0000 </r>
       <r>   -3.8900    1.0000 </r>
       <r>   -3.8771    1.0000 </r>
       <r>   -3.8666    1.0000 </r>
       <r>   -3.8221    1.0000 </r>
       <r>   -3.8169    1.0000 </r>
       <r>   -3.7976    1.0000 </r>
       <r>   -3.7770    1.0000 </r>
       <r>   -3.7580    1.0000 </r>
       <r>   -3.7035    1.0000 </r>
       <r>   -3.6016    1.0000 </r>
       <r>   -3.5698    1.0000 </r>
       <r>   -3.4249    1.0000 </r>
       <r>   -3.2628    1.0000 </r>
       <r>   -3.2454    1.0000 </r>
       <r>   -3.1911    1.0000 </r>
       <r>   -3.1631    1.0000 </r>
       <r>   -3.1500    1.0000 </r>
       <r>   -3.1348    1.0000 </r>
       <r>   -3.0999    1.0000 </r>
       <r>   -3.0646    1.0000 </r>
       <r>   -3.0422    1.0000 </r>
       <r>   -2.9096    1.0000 </r>
       <r>   -2.8946    1.0000 </r>
       <r>   -2.8621    1.0000 </r>
       <r>   -2.8202    1.0000 </r>
       <r>   -2.7810    1.0000 </r>
       <r>   -2.4539    1.0000 </r>
       <r>   -2.4238    1.0000 </r>
       <r>   -2.3876    1.0000 </r>
       <r>   -2.3607    1.0000 </r>
       <r>   -2.3242    1.0000 </r>
       <r>   -2.3007    1.0000 </r>
       <r>   -2.2850    1.0000 </r>
       <r>   -2.2675    1.0000 </r>
       <r>   -2.2276    1.0000 </r>
       <r>   -2.2147    1.0000 </r>
       <r>   -2.2049    1.0000 </r>
       <r>   -2.1649    1.0000 </r>
       <r>   -2.1472    1.0000 </r>
       <r>   -2.0996    1.0000 </r>
       <r>   -2.0839    1.0000 </r>
       <r>   -2.0664    1.0000 </r>
       <r>   -2.0393    1.0000 </r>
       <r>   -2.0147    1.0000 </r>
       <r>   -2.0075    1.0000 </r>
       <r>   -1.9846    1.0000 </r>
       <r>   -1.9426    1.0000 </r>
       <r>   -1.9244    1.0000 </r>
       <r>   -1.9157    1.0000 </r>
       <r>   -1.8945    1.0000 </r>
       <r>   -1.8737    1.0000 </r>
       <r>   -1.8375    1.0000 </r>
       <r>   -1.8256    1.0000 </r>
       <r>   -1.7904    1.0000 </r>
       <r>   -1.7695    1.0000 </r>
       <r>   -1.6807    1.0000 </r>
       <r>   -1.6590    1.0000 </r>
       <r>   -1.6503    1.0000 </r>
       <r>   -1.6319    1.0000 </r>
       <r>   -1.6180    1.0000 </r>
       <r>   -1.5983    1.0000 </r>
       <r>   -1.5849    1.0000 </r>
       <r>   -1.5622    1.0000 </r>
       <r>   -1.5388    1.0000 </r>
       <r>   -1.5156    1.0000 </r>
       <r>   -1.5110    1.0000 </r>
       <r>   -1.4960    1.0000 </r>
       <r>   -1.4643    1.0000 </r>
       <r>   -1.4339    1.0000 </r>
       <r>   -1.4298    1.0000 </r>
       <r>   -1.3608    1.0000 </r>
       <r>   -1.3364    1.0000 </r>
       <r>   -1.2850    1.0000 </r>
       <r>   -1.2675    1.0000 </r>
       <r>   -1.2620    1.0000 </r>
       <r>   -1.2607    1.0000 </r>
       <r>   -1.2186    1.0000 </r>
       <r>   -1.1874    1.0000 </r>
       <r>   -1.1350    1.0000 </r>
       <r>   -1.1060    1.0000 </r>
       <r>   -0.9487    1.0000 </r>
       <r>   -0.8980    1.0000 </r>
       <r>   -0.8413    1.0000 </r>
       <r>   -0.7852    1.0000 </r>
       <r>   -0.7603    1.0000 </r>
       <r>   -0.7303    1.0000 </r>
       <r>   -0.7148    1.0000 </r>
       <r>   -0.6720    1.0000 </r>
       <r>   -0.6512    1.0000 </r>
       <r>   -0.6343    1.0000 </r>
       <r>   -0.5713    1.0000 </r>
       <r>   -0.5402    1.0000 </r>
       <r>   -0.5237    1.0000 </r>
       <r>   -0.4896    1.0000 </r>
       <r>   -0.4464    1.0000 </r>
       <r>   -0.3506    1.0000 </r>
       <r>   -0.3155    1.0000 </r>
       <r>   -0.2632    1.0000 </r>
       <r>   -0.2108    1.0000 </r>
       <r>   -0.1279    1.0000 </r>
       <r>   -0.1159    1.0000 </r>
       <r>   -0.0915    1.0000 </r>
       <r>   -0.0840    1.0000 </r>
       <r>   -0.0688    1.0000 </r>
       <r>   -0.0535    1.0000 </r>
       <r>   -0.0150    1.0000 </r>
       <r>    0.0008    1.0000 </r>
       <r>    0.0404    1.0000 </r>
       <r>    0.0904    1.0000 </r>
       <r>    0.1226    1.0000 </r>
       <r>    0.1305    1.0000 </r>
       <r>    0.1955    1.0000 </r>
       <r>    0.2243    1.0000 </r>
       <r>    0.2469    1.0000 </r>
       <r>    0.2518    1.0000 </r>
       <r>    0.2904    1.0000 </r>
       <r>    0.3580    1.0000 </r>
       <r>    0.3747    1.0000 </r>
       <r>    0.4303    1.0000 </r>
       <r>    0.4390    0.9999 </r>
       <r>    0.4662    0.9999 </r>
       <r>    0.4840    0.9999 </r>
       <r>    0.5193    0.9999 </r>
       <r>    0.5378    0.9999 </r>
       <r>    0.5760    0.9998 </r>
       <r>    0.6076    0.9997 </r>
       <r>    0.6189    0.9997 </r>
       <r>    0.6286    0.9996 </r>
       <r>    0.6580    0.9995 </r>
       <r>    0.6787    0.9994 </r>
       <r>    0.7082    0.9992 </r>
       <r>    0.7198    0.9991 </r>
       <r>    0.7560    0.9987 </r>
       <r>    0.7702    0.9985 </r>
       <r>    0.8053    0.9979 </r>
       <r>    0.8177    0.9976 </r>
       <r>    0.8384    0.9971 </r>
       <r>    0.8504    0.9967 </r>
       <r>    0.8661    0.9961 </r>
       <r>    0.8698    0.9960 </r>
       <r>    0.8788    0.9956 </r>
       <r>    0.9448    0.9916 </r>
       <r>    0.9521    0.9909 </r>
       <r>    0.9830    0.9877 </r>
       <r>    1.0262    0.9812 </r>
       <r>    1.0411    0.9782 </r>
       <r>    1.0625    0.9731 </r>
       <r>    1.0791    0.9684 </r>
       <r>    1.0916    0.9644 </r>
       <r>    1.1115    0.9569 </r>
       <r>    1.1178    0.9542 </r>
       <r>    1.1551    0.9348 </r>
       <r>    1.1648    0.9287 </r>
       <r>    1.1976    0.9037 </r>
       <r>    1.2042    0.8978 </r>
       <r>    1.2107    0.8916 </r>
       <r>    1.2315    0.8698 </r>
       <r>    1.2395    0.8605 </r>
       <r>    1.3056    0.7611 </r>
       <r>    1.3828    0.5954 </r>
       <r>    1.4146    0.5170 </r>
       <r>    1.4484    0.4331 </r>
       <r>    1.4674    0.3871 </r>
       <r>    1.4852    0.3459 </r>
       <r>    1.5248    0.2624 </r>
       <r>    1.5375    0.2386 </r>
       <r>    1.6246    0.1160 </r>
       <r>    1.9357    0.0058 </r>
       <r>    2.1478    0.0007 </r>
       <r>    2.2405    0.0003 </r>
       <r>    2.3217    0.0001 </r>
       <r>    2.4653    0.0000 </r>
       <r>    2.7559    0.0000 </r>
       <r>    2.8039    0.0000 </r>
       <r>    4.1216    0.0000 </r>
       <r>    4.3966    0.0000 </r>
       <r>    4.5460    0.0000 </r>
       <r>    4.7695    0.0000 </r>
       <r>    4.8291    0.0000 </r>
       <r>    4.9530    0.0000 </r>
       <r>    5.1178    0.0000 </r>
       <r>    5.3762    0.0000 </r>
       <r>    5.7189    0.0000 </r>
       <r>    5.8068    0.0000 </r>
       <r>    6.0988    0.0000 </r>
       <r>    6.2190    0.0000 </r>
       <r>    6.3340    0.0000 </r>
       <r>    6.4924    0.0000 </r>
       <r>    6.6070    0.0000 </r>
       <r>    6.7439    0.0000 </r>
       <r>    6.8055    0.0000 </r>
       <r>    6.8737    0.0000 </r>
      </set>
      <set comment="kpoint 4">
       <r>  -14.6286    1.0000 </r>
       <r>   -8.7149    1.0000 </r>
       <r>   -7.6559    1.0000 </r>
       <r>   -6.4728    1.0000 </r>
       <r>   -6.2390    1.0000 </r>
       <r>   -5.9344    1.0000 </r>
       <r>   -5.6862    1.0000 </r>
       <r>   -5.5589    1.0000 </r>
       <r>   -5.4905    1.0000 </r>
       <r>   -5.2272    1.0000 </r>
       <r>   -5.1787    1.0000 </r>
       <r>   -5.1045    1.0000 </r>
       <r>   -5.0713    1.0000 </r>
       <r>   -5.0388    1.0000 </r>
       <r>   -4.8623    1.0000 </r>
       <r>   -4.8282    1.0000 </r>
       <r>   -4.7573    1.0000 </r>
       <r>   -4.7247    1.0000 </r>
       <r>   -4.6330    1.0000 </r>
       <r>   -4.5680    1.0000 </r>
       <r>   -4.4973    1.0000 </r>
       <r>   -4.3653    1.0000 </r>
       <r>   -4.2830    1.0000 </r>
       <r>   -4.2601    1.0000 </r>
       <r>   -4.1971    1.0000 </r>
       <r>   -4.1815    1.0000 </r>
       <r>   -4.1272    1.0000 </r>
       <r>   -4.1098    1.0000 </r>
       <r>   -4.0713    1.0000 </r>
       <r>   -4.0402    1.0000 </r>
       <r>   -4.0340    1.0000 </r>
       <r>   -4.0054    1.0000 </r>
       <r>   -3.9739    1.0000 </r>
       <r>   -3.9542    1.0000 </r>
       <r>   -3.9054    1.0000 </r>
       <r>   -3.8390    1.0000 </r>
       <r>   -3.8138    1.0000 </r>
       <r>   -3.7792    1.0000 </r>
       <r>   -3.7397    1.0000 </r>
       <r>   -3.6518    1.0000 </r>
       <r>   -3.6107    1.0000 </r>
       <r>   -3.5985    1.0000 </r>
       <r>   -3.5677    1.0000 </r>
       <r>   -3.5174    1.0000 </r>
       <r>   -3.4218    1.0000 </r>
       <r>   -3.3135    1.0000 </r>
       <r>   -3.2984    1.0000 </r>
       <r>   -3.2461    1.0000 </r>
       <r>   -3.2257    1.0000 </r>
       <r>   -3.1922    1.0000 </r>
       <r>   -3.1688    1.0000 </r>
       <r>   -3.1063    1.0000 </r>
       <r>   -3.0530    1.0000 </r>
       <r>   -2.9709    1.0000 </r>
       <r>   -2.9375    1.0000 </r>
       <r>   -2.9005    1.0000 </r>
       <r>   -2.8799    1.0000 </r>
       <r>   -2.8381    1.0000 </r>
       <r>   -2.7778    1.0000 </r>
       <r>   -2.6512    1.0000 </r>
       <r>   -2.6170    1.0000 </r>
       <r>   -2.5090    1.0000 </r>
       <r>   -2.4675    1.0000 </r>
       <r>   -2.4417    1.0000 </r>
       <r>   -2.4205    1.0000 </r>
       <r>   -2.3953    1.0000 </r>
       <r>   -2.3553    1.0000 </r>
       <r>   -2.3370    1.0000 </r>
       <r>   -2.3043    1.0000 </r>
       <r>   -2.2528    1.0000 </r>
       <r>   -2.2452    1.0000 </r>
       <r>   -2.1813    1.0000 </r>
       <r>   -2.1528    1.0000 </r>
       <r>   -2.1385    1.0000 </r>
       <r>   -2.1205    1.0000 </r>
       <r>   -2.0944    1.0000 </r>
       <r>   -2.0822    1.0000 </r>
       <r>   -2.0338    1.0000 </r>
       <r>   -1.9968    1.0000 </r>
       <r>   -1.9224    1.0000 </r>
       <r>   -1.9190    1.0000 </r>
       <r>   -1.8930    1.0000 </r>
       <r>   -1.8650    1.0000 </r>
       <r>   -1.8472    1.0000 </r>
       <r>   -1.8336    1.0000 </r>
       <r>   -1.8048    1.0000 </r>
       <r>   -1.7865    1.0000 </r>
       <r>   -1.7441    1.0000 </r>
       <r>   -1.7224    1.0000 </r>
       <r>   -1.7039    1.0000 </r>
       <r>   -1.6971    1.0000 </r>
       <r>   -1.6604    1.0000 </r>
       <r>   -1.6410    1.0000 </r>
       <r>   -1.6221    1.0000 </r>
       <r>   -1.6058    1.0000 </r>
       <r>   -1.5978    1.0000 </r>
       <r>   -1.5631    1.0000 </r>
       <r>   -1.5466    1.0000 </r>
       <r>   -1.5314    1.0000 </r>
       <r>   -1.4952    1.0000 </r>
       <r>   -1.4785    1.0000 </r>
       <r>   -1.4637    1.0000 </r>
       <r>   -1.4141    1.0000 </r>
       <r>   -1.4057    1.0000 </r>
       <r>   -1.3802    1.0000 </r>
       <r>   -1.3607    1.0000 </r>
       <r>   -1.3375    1.0000 </r>
       <r>   -1.2886    1.0000 </r>
       <r>   -1.2713    1.0000 </r>
       <r>   -1.2327    1.0000 </r>
       <r>   -1.2083    1.0000 </r>
       <r>   -1.1801    1.0000 </r>
       <r>   -1.1481    1.0000 </r>
       <r>   -1.1172    1.0000 </r>
       <r>   -1.0551    1.0000 </r>
       <r>   -1.0111    1.0000 </r>
       <r>   -0.9565    1.0000 </r>
       <r>   -0.9205    1.0000 </r>
       <r>   -0.7993    1.0000 </r>
       <r>   -0.7478    1.0000 </r>
       <r>   -0.7135    1.0000 </r>
       <r>   -0.6745    1.0000 </r>
       <r>   -0.6282    1.0000 </r>
       <r>   -0.6249    1.0000 </r>
       <r>   -0.6032    1.0000 </r>
       <r>   -0.5680    1.0000 </r>
       <r>   -0.5122    1.0000 </r>
       <r>   -0.4813    1.0000 </r>
       <r>   -0.4471    1.0000 </r>
       <r>   -0.3685    1.0000 </r>
       <r>   -0.3211    1.0000 </r>
       <r>   -0.2801    1.0000 </r>
       <r>   -0.2236    1.0000 </r>
       <r>   -0.1905    1.0000 </r>
       <r>   -0.1858    1.0000 </r>
       <r>   -0.1742    1.0000 </r>
       <r>   -0.1282    1.0000 </r>
       <r>   -0.0770    1.0000 </r>
       <r>   -0.0598    1.0000 </r>
       <r>   -0.0345    1.0000 </r>
       <r>    0.0323    1.0000 </r>
       <r>    0.0694    1.0000 </r>
       <r>    0.1017    1.0000 </r>
       <r>    0.1286    1.0000 </r>
       <r>    0.1462    1.0000 </r>
       <r>    0.1710    1.0000 </r>
       <r>    0.2037    1.0000 </r>
       <r>    0.2210    1.0000 </r>
       <r>    0.2473    1.0000 </r>
       <r>    0.2892    1.0000 </r>
       <r>    0.2980    1.0000 </r>
       <r>    0.3367    1.0000 </r>
       <r>    0.3524    1.0000 </r>
       <r>    0.4082    1.0000 </r>
       <r>    0.4249    1.0000 </r>
       <r>    0.4422    0.9999 </r>
       <r>    0.4799    0.9999 </r>
       <r>    0.5132    0.9999 </r>
       <r>    0.5701    0.9998 </r>
       <r>    0.6144    0.9997 </r>
       <r>    0.6454    0.9996 </r>
       <r>    0.6643    0.9995 </r>
       <r>    0.7048    0.9992 </r>
       <r>    0.7680    0.9985 </r>
       <r>    0.7751    0.9984 </r>
       <r>    0.8247    0.9974 </r>
       <r>    0.8590    0.9964 </r>
       <r>    0.8791    0.9956 </r>
       <r>    0.9160    0.9937 </r>
       <r>    0.9420    0.9918 </r>
       <r>    0.9740    0.9887 </r>
       <r>    1.0261    0.9812 </r>
       <r>    1.0557    0.9749 </r>
       <r>    1.0620    0.9733 </r>
       <r>    1.0866    0.9660 </r>
       <r>    1.0964    0.9627 </r>
       <r>    1.1489    0.9385 </r>
       <r>    1.1602    0.9317 </r>
       <r>    1.1874    0.9122 </r>
       <r>    1.2080    0.8942 </r>
       <r>    1.2272    0.8746 </r>
       <r>    1.2624    0.8307 </r>
       <r>    1.2775    0.8084 </r>
       <r>    1.3218    0.7304 </r>
       <r>    1.3470    0.6780 </r>
       <r>    1.3688    0.6286 </r>
       <r>    1.3886    0.5815 </r>
       <r>    1.4050    0.5412 </r>
       <r>    1.4132    0.5207 </r>
       <r>    1.4327    0.4718 </r>
       <r>    1.4732    0.3734 </r>
       <r>    1.5052    0.3022 </r>
       <r>    1.5525    0.2124 </r>
       <r>    1.5765    0.1750 </r>
       <r>    1.6094    0.1324 </r>
       <r>    1.6603    0.0840 </r>
       <r>    1.6894    0.0642 </r>
       <r>    1.7372    0.0408 </r>
       <r>    1.8727    0.0109 </r>
       <r>    1.9552    0.0048 </r>
       <r>    1.9918    0.0033 </r>
       <r>    2.1768    0.0005 </r>
       <r>    2.4244    0.0000 </r>
       <r>    2.8212    0.0000 </r>
       <r>    2.8721    0.0000 </r>
       <r>    3.0112    0.0000 </r>
       <r>    3.1285    0.0000 </r>
       <r>    3.9282    0.0000 </r>
       <r>    4.1289    0.0000 </r>
       <r>    4.5649    0.0000 </r>
       <r>    4.6356    0.0000 </r>
       <r>    4.8757    0.0000 </r>
       <r>    5.0012    0.0000 </r>
       <r>    5.1844    0.0000 </r>
       <r>    5.3284    0.0000 </r>
       <r>    5.4622    0.0000 </r>
       <r>    5.5357    0.0000 </r>
       <r>    5.8982    0.0000 </r>
       <r>    5.9656    0.0000 </r>
       <r>    6.2232    0.0000 </r>
       <r>    6.3399    0.0000 </r>
       <r>    6.4823    0.0000 </r>
       <r>    6.6558    0.0000 </r>
       <r>    6.8499    0.0000 </r>
[...]
      </set>
     </set>
    </set>
   </array>
  </eigenvalues>
  <separator name="orbital magnetization" >
   <v name="MAGDIPOLOUT">      0.00000000      0.00000000      0.00000000</v>
  </separator>
  <dos>
   <i name="efermi">      1.42145643 </i>
   <total>
    <array>
     <dimension dim="1">gridpoints</dimension>
     <dimension dim="2">spin</dimension>
     <field>energy</field>
     <field>total</field>
     <field>integrated</field>
     <set>
      <set comment="spin 1">
       <r>   -15.7205     0.0000     0.0000 </r>
       <r>   -15.6405     0.0000     0.0000 </r>
       <r>   -15.5605     0.0000     0.0000 </r>
       <r>   -15.4805     0.0049     0.0004 </r>
       <r>   -15.4005     0.0061     0.0009 </r>
       <r>   -15.3205     0.0135     0.0020 </r>
       <r>   -15.2404     0.0300     0.0044 </r>
       <r>   -15.1604     0.0665     0.0097 </r>
       <r>   -15.0804     0.1467     0.0214 </r>
       <r>   -15.0004     0.3204     0.0471 </r>
       <r>   -14.9204     0.6842     0.1018 </r>
       <r>   -14.8404     1.3933     0.2133 </r>
       <r>   -14.7603     2.5818     0.4199 </r>
       <r>   -14.6803     4.0420     0.7433 </r>
       <r>   -14.6003     4.9158     1.1367 </r>
       <r>   -14.5203     4.4304     1.4912 </r>
       <r>   -14.4403     3.0367     1.7342 </r>
       <r>   -14.3603     1.7119     1.8711 </r>
       <r>   -14.2802     0.8603     1.9400 </r>
       <r>   -14.2002     0.4075     1.9726 </r>
       <r>   -14.1202     0.1875     1.9876 </r>
       <r>   -14.0402     0.0852     1.9944 </r>
       <r>   -13.9602     0.0385     1.9975 </r>
       <r>   -13.8802     0.0173     1.9989 </r>
       <r>   -13.8001     0.0000     2.0000 </r>
       <r>   -13.7201     0.0000     2.0000 </r>
       <r>   -13.6401     0.0000     2.0000 </r>
       <r>   -13.5601     0.0000     2.0000 </r>
       <r>   -13.4801     0.0000     2.0000 </r>
       <r>   -13.4000     0.0000     2.0000 </r>
       <r>   -13.3200     0.0000     2.0000 </r>
       <r>   -13.2400     0.0000     2.0000 </r>
       <r>   -13.1600     0.0000     2.0000 </r>
       <r>   -13.0800     0.0000     2.0000 </r>
       <r>   -13.0000     0.0000     2.0000 </r>
       <r>   -12.9199     0.0000     2.0000 </r>
       <r>   -12.8399     0.0000     2.0000 </r>
       <r>   -12.7599     0.0000     2.0000 </r>
       <r>   -12.6799     0.0000     2.0000 </r>
       <r>   -12.5999     0.0000     2.0000 </r>
       <r>   -12.5199     0.0000     2.0000 </r>
       <r>   -12.4398     0.0000     2.0000 </r>
       <r>   -12.3598     0.0000     2.0000 </r>
       <r>   -12.2798     0.0000     2.0000 </r>
       <r>   -12.1998     0.0000     2.0000 </r>
       <r>   -12.1198     0.0000     2.0000 </r>
       <r>   -12.0398     0.0000     2.0000 </r>
       <r>   -11.9597     0.0000     2.0000 </r>
       <r>   -11.8797     0.0000     2.0000 </r>
       <r>   -11.7997     0.0000     2.0000 </r>
       <r>   -11.7197     0.0000     2.0000 </r>
       <r>   -11.6397     0.0000     2.0000 </r>
       <r>   -11.5596     0.0000     2.0000 </r>
       <r>   -11.4796     0.0000     2.0000 </r>
       <r>   -11.3996     0.0000     2.0000 </r>
       <r>   -11.3196     0.0000     2.0000 </r>
       <r>   -11.2396     0.0000     2.0000 </r>
       <r>   -11.1596     0.0000     2.0000 </r>
       <r>   -11.0795     0.0000     2.0000 </r>
       <r>   -10.9995     0.0000     2.0000 </r>
       <r>   -10.9195     0.0000     2.0000 </r>
       <r>   -10.8395     0.0000     2.0000 </r>
       <r>   -10.7595     0.0000     2.0000 </r>
       <r>   -10.6795     0.0000     2.0000 </r>
       <r>   -10.5994     0.0000     2.0000 </r>
       <r>   -10.5194     0.0000     2.0000 </r>
       <r>   -10.4394     0.0000     2.0000 </r>
       <r>   -10.3594     0.0000     2.0000 </r>
       <r>   -10.2794     0.0000     2.0000 </r>
       <r>   -10.1994     0.0000     2.0000 </r>
       <r>   -10.1193     0.0000     2.0000 </r>
       <r>   -10.0393     0.0000     2.0000 </r>
       <r>    -9.9593     0.0000     2.0000 </r>
       <r>    -9.8793     0.0000     2.0000 </r>
       <r>    -9.7993     0.0000     2.0000 </r>
       <r>    -9.7192     0.0000     2.0000 </r>
       <r>    -9.6392     0.0000     2.0000 </r>
       <r>    -9.5592     0.0052     2.0004 </r>
       <r>    -9.4792     0.0064     2.0009 </r>
       <r>    -9.3992     0.0142     2.0021 </r>
       <r>    -9.3192     0.0315     2.0046 </r>
       <r>    -9.2391     0.0697     2.0102 </r>
       <r>    -9.1591     0.1538     2.0225 </r>
       <r>    -9.0791     0.3356     2.0493 </r>
       <r>    -8.9991     0.7153     2.1066 </r>
       <r>    -8.9191     1.4506     2.2226 </r>
       <r>    -8.8391     2.6667     2.4360 </r>
       <r>    -8.7590     4.1209     2.7658 </r>
       <r>    -8.6790     4.9261     3.1599 </r>
       <r>    -8.5990     4.3623     3.5090 </r>
       <r>    -8.5190     2.9500     3.7450 </r>
       <r>    -8.4390     1.6510     3.8771 </r>
       <r>    -8.3590     0.8316     3.9437 </r>
       <r>    -8.2789     0.4051     3.9761 </r>
       <r>    -8.1989     0.2140     3.9932 </r>
       <r>    -8.1189     0.1576     4.0058 </r>
       <r>    -8.0389     0.1984     4.0217 </r>
       <r>    -7.9589     0.3427     4.0491 </r>
       <r>    -7.8788     0.6014     4.0983 </r>
       <r>    -7.7988     0.9745     4.1763 </r>
       <r>    -7.7188     1.3607     4.2852 </r>
       <r>    -7.6388     1.6668     4.4186 </r>
       <r>    -7.5588     1.8499     4.5666 </r>
       <r>    -7.4788     1.9489     4.7225 </r>
       <r>    -7.3987     2.0423     4.8859 </r>
       <r>    -7.3187     2.1368     5.0569 </r>
       <r>    -7.2387     2.1683     5.2304 </r>
       <r>    -7.1587     2.1479     5.4023 </r>
       <r>    -7.0787     2.1643     5.5755 </r>
       <r>    -6.9987     2.2614     5.7565 </r>
       <r>    -6.9186     2.4369     5.9516 </r>
       <r>    -6.8386     2.6356     6.1626 </r>
       <r>    -6.7586     2.8836     6.3934 </r>
       <r>    -6.6786     3.3091     6.6583 </r>
       <r>    -6.5986     4.0388     6.9815 </r>
       <r>    -6.5186     5.0793     7.3880 </r>
       <r>    -6.4385     6.2605     7.8890 </r>
       <r>    -6.3585     7.3225     8.4751 </r>
       <r>    -6.2785     8.0579     9.1200 </r>
       <r>    -6.1985     8.2321     9.7787 </r>
       <r>    -6.1185     7.8355    10.4059 </r>
       <r>    -6.0384     7.3316    10.9926 </r>
       <r>    -5.9584     7.1316    11.5634 </r>
       <r>    -5.8784     7.3578    12.1523 </r>
       <r>    -5.7984     7.9583    12.7891 </r>
       <r>    -5.7184     8.7523    13.4897 </r>
       <r>    -5.6384     9.6488    14.2622 </r>
       <r>    -5.5583    10.7021    15.1188 </r>
       <r>    -5.4783    11.8195    16.0650 </r>
       <r>    -5.3983    12.8940    17.0974 </r>
       <r>    -5.3183    14.1327    18.2283 </r>
       <r>    -5.2383    15.8103    19.4937 </r>
       <r>    -5.1583    17.9373    20.9293 </r>
       <r>    -5.0782    20.2656    22.5511 </r>
       <r>    -4.9982    22.6734    24.3657 </r>
       <r>    -4.9182    25.2450    26.3862 </r>
       <r>    -4.8382    27.8858    28.6178 </r>
       <r>    -4.7582    30.2683    31.0402 </r>
       <r>    -4.6782    32.2200    33.6190 </r>
       <r>    -4.5981    34.0283    36.3424 </r>
       <r>    -4.5181    36.2073    39.2402 </r>
       <r>    -4.4381    38.9480    42.3571 </r>
       <r>    -4.3581    42.1019    45.7267 </r>
       <r>    -4.2781    45.3379    49.3556 </r>
       <r>    -4.1981    48.0482    53.2011 </r>
       <r>    -4.1180    49.6829    57.1775 </r>
       <r>    -4.0380    50.0842    61.1864 </r>
       <r>    -3.9580    49.4638    65.1458 </r>
       <r>    -3.8780    48.2002    69.0041 </r>
       <r>    -3.7980    46.4641    72.7230 </r>
       <r>    -3.7179    44.2926    76.2688 </r>
       <r>    -3.6379    42.0428    79.6344 </r>
       <r>    -3.5579    40.3364    82.8636 </r>
       <r>    -3.4779    39.7276    86.0449 </r>
       <r>    -3.3979    40.4895    89.2869 </r>
       <r>    -3.3179    42.3285    92.6761 </r>
       <r>    -3.2378    44.3713    96.2288 </r>
       <r>    -3.1578    45.7186    99.8890 </r>
       <r>    -3.0778    46.1830   103.5867 </r>
       <r>    -2.9978    46.3928   107.3008 </r>
       <r>    -2.9178    46.9782   111.0618 </r>
       <r>    -2.8378    47.7216   114.8819 </r>
       <r>    -2.7577    47.8545   118.7127 </r>
       <r>    -2.6777    47.4547   122.5112 </r>
       <r>    -2.5977    47.5254   126.3157 </r>
       <r>    -2.5177    48.8750   130.2282 </r>
       <r>    -2.4377    51.2542   134.3314 </r>
       <r>    -2.3577    53.8517   138.6426 </r>
       <r>    -2.2776    56.6158   143.1746 </r>
       <r>    -2.1976    59.7715   147.9592 </r>
       <r>    -2.1176    62.8541   152.9904 </r>
       <r>    -2.0376    65.5616   158.2389 </r>
       <r>    -1.9576    68.5398   163.7254 </r>
       <r>    -1.8775    72.0882   169.4954 </r>
       <r>    -1.7975    75.3616   175.5274 </r>
       <r>    -1.7175    77.4726   181.7282 </r>
       <r>    -1.6375    78.4472   188.0078 </r>
       <r>    -1.5575    78.6894   194.3066 </r>
       <r>    -1.4775    78.1441   200.5616 </r>
       <r>    -1.3974    75.9673   206.6428 </r>
       <r>    -1.3174    71.3498   212.3552 </r>
       <r>    -1.2374    64.9096   217.5515 </r>
       <r>    -1.1574    58.1959   222.2110 </r>
       <r>    -1.0774    52.4062   226.4073 </r>
       <r>    -0.9974    48.2942   230.2750 </r>
       <r>    -0.9173    46.8046   234.0235 </r>
       <r>    -0.8373    48.5471   237.9117 </r>
       <r>    -0.7573    52.7886   242.1386 </r>
       <r>    -0.6773    57.3196   246.7284 </r>
       <r>    -0.5973    59.6152   251.5025 </r>
       <r>    -0.5173    58.5337   256.1893 </r>
       <r>    -0.4372    55.1736   260.6066 </r>
       <r>    -0.3572    51.7854   264.7524 </r>
       <r>    -0.2772    49.8795   268.7459 </r>
       <r>    -0.1972    49.7457   272.7281 </r>
       <r>    -0.1172    51.0820   276.8170 </r>
       <r>    -0.0371    53.5058   281.1000 </r>
       <r>     0.0429    56.4605   285.6199 </r>
       <r>     0.1229    59.3009   290.3676 </r>
       <r>     0.2029    61.4374   295.2870 </r>
       <r>     0.2829    62.3050   300.2752 </r>
       <r>     0.3629    61.3802   305.1888 </r>
       <r>     0.4430    58.8012   309.8957 </r>
       <r>     0.5230    55.6806   314.3528 </r>
       <r>     0.6030    53.3888   318.6269 </r>
       <r>     0.6830    52.5700   322.8351 </r>
       <r>     0.7630    52.8565   327.0669 </r>
       <r>     0.8430    53.7593   331.3709 </r>
       <r>     0.9231    55.5327   335.8170 </r>
       <r>     1.0031    58.8094   340.5253 </r>
       <r>     1.0831    63.2758   345.5912 </r>
       <r>     1.1631    67.5768   351.0017 </r>
       <r>     1.2431    70.4222   356.6392 </r>
       <r>     1.3231    70.9443   362.3181 </r>
       <r>     1.4032    68.4926   367.8004 </r>
       <r>     1.4832    63.3110   372.8684 </r>
       <r>     1.5632    56.7523   377.4118 </r>
       <r>     1.6432    49.7084   381.3917 </r>
       <r>     1.7232    42.0043   384.7544 </r>
       <r>     1.8033    33.8804   387.4676 </r>
       <r>     1.8833    26.7655   389.6120 </r>
       <r>     1.9633    21.6973   391.3514 </r>
       <r>     2.0433    18.3516   392.8230 </r>
       <r>     2.1233    15.9130   394.0994 </r>
       <r>     2.2033    14.0300   395.2255 </r>
       <r>     2.2834    12.8270   396.2545 </r>
       <r>     2.3634    12.3823   397.2473 </r>
       <r>     2.4434    12.3658   398.2387 </r>
       <r>     2.5234    12.1730   399.2152 </r>
       <r>     2.6034    11.6317   400.1468 </r>
       <r>     2.6834    11.2275   401.0460 </r>
       <r>     2.7635    11.3675   401.9562 </r>
       <r>     2.8435    11.8697   402.9067 </r>
       <r>     2.9235    12.3633   403.8966 </r>
       <r>     3.0035    12.6317   404.9079 </r>
       <r>     3.0835    12.6683   405.9220 </r>
       <r>     3.1635    12.4946   406.9221 </r>
       <r>     3.2436    12.0653   407.8881 </r>
       <r>     3.3236    11.4120   408.8022 </r>
       <r>     3.4036    10.7915   409.6660 </r>
       <r>     3.4836    10.5163   410.5077 </r>
       <r>     3.5636    10.7065   411.3649 </r>
       <r>     3.6437    11.2248   412.2636 </r>
       <r>     3.7237    11.7650   413.2057 </r>
       <r>     3.8037    12.0583   414.1709 </r>
       <r>     3.8837    12.0401   415.1349 </r>
       <r>     3.9637    11.8830   416.0863 </r>
       <r>     4.0437    11.7378   417.0260 </r>
       <r>     4.1238    11.5781   417.9530 </r>
       <r>     4.2038    11.3848   418.8644 </r>
       <r>     4.2838    11.2483   419.7648 </r>
       <r>     4.3638    11.1417   420.6567 </r>
       <r>     4.4438    11.1457   421.5491 </r>
       <r>     4.5238    11.4902   422.4691 </r>
       <r>     4.6039    12.0150   423.4311 </r>
       <r>     4.6839    12.2860   424.4146 </r>
       <r>     4.7639    12.2680   425.3967 </r>
       <r>     4.8439    12.2518   426.3775 </r>
       <r>     4.9239    12.3139   427.3635 </r>
       <r>     5.0039    12.2814   428.3464 </r>
       <r>     5.0840    12.0457   429.3108 </r>
       <r>     5.1640    11.7339   430.2503 </r>
       <r>     5.2440    11.4583   431.1674 </r>
       <r>     5.3240    11.3099   432.0728 </r>
       <r>     5.4040    11.4272   432.9880 </r>
       <r>     5.4840    11.7122   433.9257 </r>
       <r>     5.5641    11.7940   434.8699 </r>
       <r>     5.6441    11.5555   435.7950 </r>
       <r>     5.7241    11.3266   436.7017 </r>
       <r>     5.8041    11.3093   437.6075 </r>
       <r>     5.8841    11.3915   438.5193 </r>
       <r>     5.9642    11.3564   439.4285 </r>
       <r>     6.0442    11.0700   440.3149 </r>
       <r>     6.1242    10.7570   441.1760 </r>
       <r>     6.2042    10.6706   442.0302 </r>
       <r>     6.2842    10.6257   442.8810 </r>
       <r>     6.3642    10.4152   443.7150 </r>
       <r>     6.4443    10.0689   444.5211 </r>
       <r>     6.5243     9.6480   445.2935 </r>
       <r>     6.6043     9.2137   446.0312 </r>
       <r>     6.6843     8.7943   446.7353 </r>
       <r>     6.7643     8.3368   447.4030 </r>
       <r>     6.8443     7.7221   448.0213 </r>
       <r>     6.9244     6.8466   448.5694 </r>
       <r>     7.0044     5.7240   449.0280 </r>
       <r>     7.0844     4.4715   449.3863 </r>
       <r>     7.1644     3.2121   449.6436 </r>
       <r>     7.2444     2.0719   449.8099 </r>
       <r>     7.3244     1.1901   449.9056 </r>
       <r>     7.4045     0.6180   449.9554 </r>
       <r>     7.4845     0.2975   449.9796 </r>
       <r>     7.5645     0.1369   449.9909 </r>
       <r>     7.6445     0.0605   449.9960 </r>
       <r>     7.7245     0.0250   449.9984 </r>
       <r>     7.8046     0.0097   449.9994 </r>
       <r>     7.8846     0.0032   449.9998 </r>
       <r>     7.9646     0.0007   450.0000 </r>
       <r>     8.0446     0.0000   450.0000 </r>
       <r>     8.1246     0.0000   450.0000 </r>
       <r>     8.2046     0.0000   450.0000 </r>
       <r>     8.2847     0.0000   450.0000 </r>
      </set>
     </set>
    </array>
   </total>
  </dos>
 </calculation>
 <structure name="finalpos" >
  <crystal>
   <varray name="basis" >
    <v>       8.42164176       0.00000000       0.00000000 </v>
    <v>       4.21082088       7.29335571       0.00000000 </v>
    <v>       0.00000000       0.00000000      21.87624171 </v>
   </varray>
   <i name="volume">   1343.68315334 </i>
   <varray name="rec_basis" >
    <v>       0.11874169      -0.06855555       0.00000000 </v>
    <v>       0.00000000       0.13711110       0.00000000 </v>
    <v>       0.00000000       0.00000000       0.04571169 </v>
   </varray>
  </crystal>
  <varray name="positions" >
   <v>       0.00000000       0.00000000       0.34283768 </v>
   <v>       0.33333333       0.00000000       0.34283768 </v>
   <v>       0.66666667       0.00000000       0.34283768 </v>
   <v>       0.00000000       0.33333333       0.34283768 </v>
   <v>       0.33333333       0.33333333       0.34283768 </v>
   <v>       0.66666667       0.33333333       0.34283768 </v>
   <v>       0.00000000       0.66666667       0.34283768 </v>
   <v>       0.33333333       0.66666667       0.34283768 </v>
   <v>       0.66666667       0.66666667       0.34283768 </v>
   <v>       0.11111111       0.11111111       0.44761256 </v>
   <v>       0.44444444       0.11111111       0.44761256 </v>
   <v>       0.77777778       0.11111111       0.44761256 </v>
   <v>       0.11111111       0.44444444       0.44761256 </v>
   <v>       0.44444444       0.44444444       0.44761256 </v>
   <v>       0.77777778       0.44444444       0.44761256 </v>
   <v>       0.11111111       0.77777778       0.44761256 </v>
   <v>       0.44444444       0.77777778       0.44761256 </v>
   <v>       0.77777778       0.77777778       0.44761256 </v>
   <v>       0.88714077       0.22392945       0.55208032 </v>
   <v>       0.22297079       0.22324692       0.55161660 </v>
   <v>       0.55595078       0.22259753       0.55238561 </v>
   <v>       0.88938321       0.55594107       0.55057290 </v>
   <v>       0.22391612       0.55246867       0.55262860 </v>
   <v>       0.55722153       0.55397859       0.55203691 </v>
   <v>       0.88585255       0.89046121       0.55262677 </v>
   <v>       0.22265102       0.88922120       0.55008305 </v>
   <v>       0.55667331       0.88962339       0.55158730 </v>
   <v>       0.00695774       0.99846546       0.65604209 </v>
   <v>       0.33114597       0.99745697       0.65648795 </v>
   <v>       0.67614115       0.98795534       0.66157622 </v>
   <v>       0.00096940       0.33510869       0.65599162 </v>
   <v>       0.32171966       0.34223996       0.66168366 </v>
   <v>       0.67629492       0.34244037       0.66198868 </v>
   <v>       0.00144582       0.66763133       0.65607549 </v>
   <v>       0.33211025       0.67334710       0.65604380 </v>
   <v>       0.66878329       0.66740125       0.65600641 </v>
   <v>       0.48394774       0.14859719       0.73195829 </v>
   <v>       0.57132375       0.23935189       0.71427947 </v>
   <v>       0.44526070       0.10940571       0.77425990 </v>
  </varray>
  <varray name="selective"  type="logical" >
   <v type="logical" >  F  F  F </v>
   <v type="logical" >  F  F  F </v>
   <v type="logical" >  F  F  F </v>
   <v type="logical" >  F  F  F </v>
   <v type="logical" >  F  F  F </v>
   <v type="logical" >  F  F  F </v>
   <v type="logical" >  F  F  F </v>
   <v type="logical" >  F  F  F </v>
   <v type="logical" >  F  F  F </v>
   <v type="logical" >  F  F  F </v>
   <v type="logical" >  F  F  F </v>
   <v type="logical" >  F  F  F </v>
   <v type="logical" >  F  F  F </v>
   <v type="logical" >  F  F  F </v>
   <v type="logical" >  F  F  F </v>
   <v type="logical" >  F  F  F </v>
   <v type="logical" >  F  F  F </v>
   <v type="logical" >  F  F  F </v>
   <v type="logical" >  T  T  T </v>
   <v type="logical" >  T  T  T </v>
   <v type="logical" >  T  T  T </v>
   <v type="logical" >  T  T  T </v>
   <v type="logical" >  T  T  T </v>
   <v type="logical" >  T  T  T </v>
   <v type="logical" >  T  T  T </v>
   <v type="logical" >  T  T  T </v>
   <v type="logical" >  T  T  T </v>
   <v type="logical" >  T  T  T </v>
   <v type="logical" >  T  T  T </v>
   <v type="logical" >  T  T  T </v>
   <v type="logical" >  T  T  T </v>
   <v type="logical" >  T  T  T </v>
   <v type="logical" >  T  T  T </v>
   <v type="logical" >  T  T  T </v>
   <v type="logical" >  T  T  T </v>
   <v type="logical" >  T  T  T </v>
   <v type="logical" >  T  T  T </v>
   <v type="logical" >  T  T  T </v>
   <v type="logical" >  T  T  T </v>
  </varray>
  <nose>
   <v>      -3.00000000       0.00000000       0.00010000       0.00010000 </v>
  </nose>
 </structure>
</modeling>
