   37   37    1    1
  0.3631576E+02  0.8421642E-09  0.8421642E-09  0.2187624E-08  0.5000000E-15
  1.000000000000000E-004
  CAR 
 unknown system                          
    361     54    220
 
  0.8333333E-01  0.8333333E-01  0.0000000E+00  0.1851852E-01
    1       -8.160001   1.000000
    2       -7.035135   1.000000
    3       -6.281940   1.000000
    4       -5.835616   1.000000
    5       -5.720629   1.000000
    6       -5.715563   1.000000
    7       -5.642839   1.000000
    8       -5.566815   1.000000
    9       -5.561854   1.000000
   10       -5.527833   1.000000
   11       -5.276835   1.000000
   12       -5.084043   1.000000
   13       -5.079601   1.000000
   14       -5.058476   1.000000
   15       -5.049685   1.000000
   16       -5.048171   1.000000
   17       -4.942427   1.000000
   18       -4.598011   1.000000
   19       -4.582791   1.000000
   20       -4.559567   1.000000
   21       -4.544769   1.000000
   22       -4.539824   1.000000
   23       -4.479001   1.000000
   24       -4.425131   1.000000
   25       -4.385892   1.000000
   26       -4.330443   1.000000
   27       -4.264914   1.000000
   28       -4.243260   1.000000
   29       -4.202668   1.000000
   30       -4.176265   1.000000
   31       -4.174389   1.000000
   32       -4.155281   1.000000
   33       -4.134734   1.000000
   34       -4.105607   1.000000
   35       -4.105152   1.000000
   36       -4.066874   1.000000
   37       -4.039145   1.000000
   38       -4.010097   1.000000
   39       -3.929350   1.000000
   40       -3.929107   1.000000
   41       -3.638615   1.000000
   42       -3.487923   1.000000
   43       -3.484733   1.000000
   44       -3.454764   1.000000
   45       -3.446420   1.000000
   46       -3.434703   1.000000
   47       -3.419249   1.000000
   48       -3.368180   1.000000
   49       -3.329546   1.000000
   50       -3.287866   1.000000
   51       -3.201393   1.000000
   52       -3.200873   1.000000
   53       -3.119092   1.000000
   54       -3.114246   1.000000
   55       -3.075803   1.000000
   56       -2.625757   1.000000
   57       -2.617668   1.000000
   58       -2.610780   1.000000
   59       -2.591773   1.000000
   60       -2.568409   1.000000
   61       -2.543518   1.000000
   62       -2.512322   1.000000
   63       -2.506222   1.000000
   64       -2.505623   1.000000
   65       -2.489955   1.000000
   66       -2.446860   1.000000
   67       -2.433912   1.000000
   68       -2.383680   1.000000
   69       -2.382691   1.000000
   70       -2.372201   1.000000
   71       -2.357759   1.000000
   72       -2.338251   1.000000
   73       -2.280887   1.000000
   74       -2.276159   1.000000
   75       -2.260287   1.000000
   76       -2.241171   1.000000
   77       -2.206801   1.000000
   78       -2.165716   1.000000
   79       -2.165096   1.000000
   80       -2.098126   1.000000
   81       -2.095190   1.000000
   82       -2.080973   1.000000
   83       -2.061184   1.000000
   84       -1.971276   1.000000
   85       -1.938136   1.000000
   86       -1.936492   1.000000
   87       -1.911792   1.000000
   88       -1.892510   1.000000
   89       -1.881406   1.000000
   90       -1.874722   1.000000
   91       -1.847603   1.000000
   92       -1.821013   1.000000
   93       -1.801075   1.000000
   94       -1.763229   1.000000
   95       -1.759034   1.000000
   96       -1.720685   1.000000
   97       -1.710481   1.000000
   98       -1.615668   1.000000
   99       -1.614881   1.000000
  100       -1.580934   1.000000
  101       -1.567463   1.000000
  102       -1.567154   1.000000
  103       -1.561803   1.000000
  104       -1.546938   1.000000
  105       -1.510166   1.000000
  106       -1.470674   1.000000
  107       -1.420679   1.000000
  108       -1.362789   1.000000
  109       -1.243144   1.000000
  110       -1.200622   1.000000
  111       -1.162985   1.000000
  112       -1.074946   1.000000
  113       -1.047515   1.000000
  114       -0.964150   1.000000
  115       -0.953085   1.000000
  116       -0.943742   1.000000
  117       -0.933127   1.000000
  118       -0.914514   1.000000
  119       -0.894938   1.000000
  120       -0.867147   1.000000
  121       -0.820853   1.000000
  122       -0.808909   1.000000
  123       -0.808287   1.000000
  124       -0.635786   1.000000
  125       -0.564960   1.000000
  126       -0.562384   1.000000
  127       -0.457074   1.000000
  128       -0.449002   1.000000
  129       -0.409301   1.000000
  130       -0.404468   1.000000
  131       -0.391281   1.000000
  132       -0.390341   1.000000
  133       -0.371326   1.000000
  134       -0.294023   0.999999
  135       -0.269327   0.999999
  136       -0.268798   0.999999
  137       -0.259130   0.999999
  138       -0.130826   0.999996
  139       -0.126658   0.999996
  140       -0.077193   0.999993
  141       -0.070475   0.999993
  142       -0.057323   0.999992
  143       -0.038025   0.999990
  144        0.010732   0.999984
  145        0.047419   0.999977
  146        0.120133   0.999953
  147        0.170362   0.999922
  148        0.178033   0.999916
  149        0.197736   0.999898
  150        0.200646   0.999895
  151        0.222036   0.999870
  152        0.237139   0.999848
  153        0.297497   0.999723
  154        0.314570   0.999671
  155        0.340264   0.999575
  156        0.370139   0.999427
  157        0.376785   0.999387
  158        0.379619   0.999370
  159        0.442868   0.998814
  160        0.444067   0.998800
  161        0.451930   0.998702
  162        0.462056   0.998563
  163        0.510108   0.997679
  164        0.515205   0.997558
  165        0.532563   0.997097
  166        0.536583   0.996978
  167        0.547659   0.996625
  168        0.580640   0.995313
  169        0.598533   0.994399
  170        0.622135   0.992919
  171        0.623663   0.992811
  172        0.633060   0.992108
  173        0.643732   0.991227
  174        0.700559   0.984617
  175        0.706881   0.983630
  176        0.787495   0.964072
  177        0.791436   0.962682
  178        0.806168   0.957013
  179        0.814995   0.953232
  180        0.838289   0.941679
  181        0.846763   0.936848
  182        0.871389   0.920614
  183        0.879340   0.914605
  184        0.901245   0.895870
  185        0.909918   0.887497
  186        0.919616   0.877444
  187        0.940658   0.852962
  188        0.942719   0.850359
  189        0.972259   0.808767
  190        1.086431   0.574515
  191        1.164278   0.382683
  192        1.168971   0.371659
  193        1.187190   0.330195
  194        1.203287   0.295616
  195        1.203913   0.294314
  196        1.239021   0.226951
  197        1.698840   0.002948
  198        1.845395   0.000682
  199        1.915210   0.000340
  200        1.966067   0.000204
  201        2.122137   0.000043
  202        2.161791   0.000029
  203        2.247863   0.000012
  204        3.940515   0.000000
  205        4.141908   0.000000
  206        4.186177   0.000000
  207        4.437788   0.000000
  208        4.513005   0.000000
  209        4.645851   0.000000
  210        5.382587   0.000000
  211        5.419015   0.000000
  212        5.879265   0.000000
  213        5.901328   0.000000
  214        6.222628   0.000000
  215        6.290078   0.000000
  216        6.326444   0.000000
  217        6.450485   0.000000
  218        6.541645   0.000000
  219        6.623864   0.000000
  220        6.807072   0.000000
 
  0.0000000E+00  0.8333333E-01  0.0000000E+00  0.1851852E-01
    1       -8.159998   1.000000
    2       -7.035114   1.000000
    3       -6.281870   1.000000
    4       -5.835613   1.000000
    5       -5.720560   1.000000
    6       -5.715738   1.000000
    7       -5.642845   1.000000
    8       -5.567077   1.000000
    9       -5.561759   1.000000
   10       -5.527633   1.000000
   11       -5.276707   1.000000
   12       -5.084380   1.000000
   13       -5.079629   1.000000
   14       -5.058538   1.000000
   15       -5.049570   1.000000
   16       -5.048086   1.000000
   17       -4.942292   1.000000
   18       -4.598068   1.000000
   19       -4.582870   1.000000
   20       -4.559548   1.000000
   21       -4.544707   1.000000
   22       -4.539888   1.000000
   23       -4.478899   1.000000
   24       -4.425338   1.000000
   25       -4.385748   1.000000
   26       -4.330485   1.000000
   27       -4.264723   1.000000
   28       -4.243109   1.000000
   29       -4.202644   1.000000
   30       -4.176443   1.000000
   31       -4.174099   1.000000
   32       -4.155451   1.000000
   33       -4.134728   1.000000
   34       -4.105940   1.000000
   35       -4.105285   1.000000
   36       -4.066913   1.000000
   37       -4.039346   1.000000
   38       -4.009911   1.000000
   39       -3.929261   1.000000
   40       -3.928996   1.000000
   41       -3.638678   1.000000
   42       -3.487913   1.000000
   43       -3.484763   1.000000
   44       -3.454711   1.000000
   45       -3.446302   1.000000
   46       -3.434828   1.000000
   47       -3.419196   1.000000
   48       -3.368270   1.000000
   49       -3.329517   1.000000
   50       -3.287766   1.000000
   51       -3.201356   1.000000
   52       -3.200957   1.000000
   53       -3.119136   1.000000
   54       -3.114089   1.000000
   55       -3.076042   1.000000
   56       -2.626137   1.000000
   57       -2.617576   1.000000
   58       -2.610822   1.000000
   59       -2.591737   1.000000
   60       -2.568258   1.000000
   61       -2.543686   1.000000
   62       -2.512419   1.000000
   63       -2.505864   1.000000
   64       -2.505688   1.000000
   65       -2.490048   1.000000
   66       -2.446621   1.000000
   67       -2.433940   1.000000
   68       -2.383588   1.000000
   69       -2.383027   1.000000
   70       -2.372154   1.000000
   71       -2.357747   1.000000
   72       -2.338284   1.000000
   73       -2.280786   1.000000
   74       -2.276354   1.000000
   75       -2.260663   1.000000
   76       -2.241117   1.000000
   77       -2.206822   1.000000
   78       -2.164993   1.000000
   79       -2.164610   1.000000
   80       -2.098281   1.000000
   81       -2.095218   1.000000
   82       -2.080940   1.000000
   83       -2.061806   1.000000
   84       -1.970812   1.000000
   85       -1.938590   1.000000
   86       -1.936677   1.000000
   87       -1.911756   1.000000
   88       -1.892304   1.000000
   89       -1.881397   1.000000
   90       -1.874859   1.000000
   91       -1.847282   1.000000
   92       -1.820947   1.000000
   93       -1.800914   1.000000
   94       -1.763252   1.000000
   95       -1.759150   1.000000
   96       -1.720576   1.000000
   97       -1.710513   1.000000
   98       -1.615538   1.000000
   99       -1.615437   1.000000
  100       -1.581040   1.000000
  101       -1.567488   1.000000
  102       -1.567127   1.000000
  103       -1.561524   1.000000
  104       -1.546924   1.000000
  105       -1.510001   1.000000
  106       -1.470095   1.000000
  107       -1.421124   1.000000
  108       -1.363293   1.000000
  109       -1.242954   1.000000
  110       -1.200624   1.000000
  111       -1.162923   1.000000
  112       -1.074842   1.000000
  113       -1.047564   1.000000
  114       -0.963727   1.000000
  115       -0.953438   1.000000
  116       -0.943615   1.000000
  117       -0.933096   1.000000
  118       -0.914561   1.000000
  119       -0.894770   1.000000
  120       -0.867174   1.000000
  121       -0.820575   1.000000
  122       -0.808727   1.000000
  123       -0.808399   1.000000
  124       -0.636043   1.000000
  125       -0.565025   1.000000
  126       -0.562183   1.000000
  127       -0.456992   1.000000
  128       -0.449034   1.000000
  129       -0.409919   1.000000
  130       -0.403883   1.000000
  131       -0.391290   1.000000
  132       -0.390487   1.000000
  133       -0.371259   1.000000
  134       -0.294338   0.999999
  135       -0.269099   0.999999
  136       -0.268836   0.999999
  137       -0.258916   0.999999
  138       -0.130893   0.999996
  139       -0.127041   0.999996
  140       -0.077470   0.999993
  141       -0.070043   0.999993
  142       -0.056590   0.999992
  143       -0.038744   0.999990
  144        0.010717   0.999984
  145        0.047277   0.999977
  146        0.120213   0.999953
  147        0.170267   0.999922
  148        0.178458   0.999916
  149        0.198061   0.999897
  150        0.200020   0.999895
  151        0.221958   0.999870
  152        0.237152   0.999848
  153        0.297585   0.999722
  154        0.314905   0.999670
  155        0.340223   0.999575
  156        0.370034   0.999427
  157        0.376794   0.999387
  158        0.379669   0.999369
  159        0.442245   0.998821
  160        0.444364   0.998796
  161        0.451748   0.998704
  162        0.462698   0.998554
  163        0.510086   0.997680
  164        0.515249   0.997557
  165        0.532693   0.997093
  166        0.536637   0.996976
  167        0.547524   0.996630
  168        0.580750   0.995308
  169        0.598180   0.994419
  170        0.621992   0.992929
  171        0.623753   0.992804
  172        0.633009   0.992112
  173        0.643824   0.991219
  174        0.700662   0.984602
  175        0.706677   0.983663
  176        0.787421   0.964098
  177        0.791428   0.962685
  178        0.806281   0.956967
  179        0.814677   0.953373
  180        0.838457   0.941587
  181        0.846804   0.936824
  182        0.871375   0.920624
  183        0.879325   0.914617
  184        0.901413   0.895713
  185        0.909964   0.887451
  186        0.919529   0.877537
  187        0.940582   0.853057
  188        0.942644   0.850454
  189        0.972644   0.808170
  190        1.085939   0.575718
  191        1.164266   0.382712
  192        1.169141   0.371262
  193        1.187095   0.330407
  194        1.203231   0.295733
  195        1.203877   0.294388
  196        1.238950   0.227077
  197        1.699113   0.002940
  198        1.845083   0.000684
  199        1.915190   0.000340
  200        1.966041   0.000204
  201        2.122003   0.000043
  202        2.162007   0.000029
  203        2.247966   0.000012
  204        3.941335   0.000000
  205        4.140782   0.000000
  206        4.186240   0.000000
  207        4.437412   0.000000
  208        4.512929   0.000000
  209        4.646572   0.000000
  210        5.382664   0.000000
  211        5.419084   0.000000
  212        5.879539   0.000000
  213        5.900504   0.000000
  214        6.223834   0.000000
  215        6.291839   0.000000
  216        6.332633   0.000000
  217        6.500591   0.000000
  218        6.547915   0.000000
  219        6.624906   0.000000
  220        6.862678   0.000000
 
 -0.8333333E-01  0.0000000E+00  0.0000000E+00  0.1851852E-01
    1       -8.160001   1.000000
    2       -7.035138   1.000000
    3       -6.281947   1.000000
    4       -5.835616   1.000000
    5       -5.720615   1.000000
    6       -5.715560   1.000000
    7       -5.642841   1.000000
    8       -5.566811   1.000000
    9       -5.561846   1.000000
   10       -5.527852   1.000000
   11       -5.276852   1.000000
   12       -5.084019   1.000000
   13       -5.079597   1.000000
   14       -5.058454   1.000000
   15       -5.049646   1.000000
   16       -5.048225   1.000000
   17       -4.942451   1.000000
   18       -4.597990   1.000000
   19       -4.582784   1.000000
   20       -4.559595   1.000000
   21       -4.544758   1.000000
   22       -4.539823   1.000000
   23       -4.479037   1.000000
   24       -4.425106   1.000000
   25       -4.385872   1.000000
   26       -4.330439   1.000000
   27       -4.264884   1.000000
   28       -4.243326   1.000000
   29       -4.202674   1.000000
   30       -4.176264   1.000000
   31       -4.174380   1.000000
   32       -4.155229   1.000000
   33       -4.134751   1.000000
   34       -4.105593   1.000000
   35       -4.105157   1.000000
   36       -4.066870   1.000000
   37       -4.039144   1.000000
   38       -4.010124   1.000000
   39       -3.929342   1.000000
   40       -3.929107   1.000000
   41       -3.638604   1.000000
   42       -3.487937   1.000000
   43       -3.484730   1.000000
   44       -3.454739   1.000000
   45       -3.446391   1.000000
   46       -3.434705   1.000000
   47       -3.419278   1.000000
   48       -3.368222   1.000000
   49       -3.329546   1.000000
   50       -3.287850   1.000000
   51       -3.201396   1.000000
   52       -3.200868   1.000000
   53       -3.119073   1.000000
   54       -3.114252   1.000000
   55       -3.075801   1.000000
   56       -2.625759   1.000000
   57       -2.617651   1.000000
   58       -2.610765   1.000000
   59       -2.591785   1.000000
   60       -2.568411   1.000000
   61       -2.543514   1.000000
   62       -2.512336   1.000000
   63       -2.506219   1.000000
   64       -2.505628   1.000000
   65       -2.489949   1.000000
   66       -2.446885   1.000000
   67       -2.433911   1.000000
   68       -2.383689   1.000000
   69       -2.382675   1.000000
   70       -2.372204   1.000000
   71       -2.357767   1.000000
   72       -2.338249   1.000000
   73       -2.280873   1.000000
   74       -2.276159   1.000000
   75       -2.260308   1.000000
   76       -2.241164   1.000000
   77       -2.206809   1.000000
   78       -2.165724   1.000000
   79       -2.165089   1.000000
   80       -2.098116   1.000000
   81       -2.095163   1.000000
   82       -2.080971   1.000000
   83       -2.061208   1.000000
   84       -1.971273   1.000000
   85       -1.938143   1.000000
   86       -1.936512   1.000000
   87       -1.911802   1.000000
   88       -1.892499   1.000000
   89       -1.881420   1.000000
   90       -1.874647   1.000000
   91       -1.847637   1.000000
   92       -1.821005   1.000000
   93       -1.801092   1.000000
   94       -1.763234   1.000000
   95       -1.759033   1.000000
   96       -1.720682   1.000000
   97       -1.710508   1.000000
   98       -1.615654   1.000000
   99       -1.614869   1.000000
  100       -1.580945   1.000000
  101       -1.567464   1.000000
  102       -1.567158   1.000000
  103       -1.561803   1.000000
  104       -1.546933   1.000000
  105       -1.510164   1.000000
  106       -1.470656   1.000000
  107       -1.420624   1.000000
  108       -1.362781   1.000000
  109       -1.243226   1.000000
  110       -1.200622   1.000000
  111       -1.162988   1.000000
  112       -1.074993   1.000000
  113       -1.047516   1.000000
  114       -0.964166   1.000000
  115       -0.953026   1.000000
  116       -0.943741   1.000000
  117       -0.933172   1.000000
  118       -0.914501   1.000000
  119       -0.894947   1.000000
  120       -0.867178   1.000000
  121       -0.820868   1.000000
  122       -0.808913   1.000000
  123       -0.808283   1.000000
  124       -0.635746   1.000000
  125       -0.564970   1.000000
  126       -0.562404   1.000000
  127       -0.457080   1.000000
  128       -0.449009   1.000000
  129       -0.409273   1.000000
  130       -0.404496   1.000000
  131       -0.391278   1.000000
  132       -0.390322   1.000000
  133       -0.371339   1.000000
  134       -0.293940   0.999999
  135       -0.269340   0.999999
  136       -0.268773   0.999999
  137       -0.259124   0.999999
  138       -0.130838   0.999996
  139       -0.126658   0.999996
  140       -0.077149   0.999993
  141       -0.070475   0.999993
  142       -0.057307   0.999992
  143       -0.038063   0.999990
  144        0.010714   0.999984
  145        0.047412   0.999977
  146        0.120143   0.999953
  147        0.170417   0.999922
  148        0.177990   0.999916
  149        0.197703   0.999898
  150        0.200637   0.999895
  151        0.222043   0.999870
  152        0.237173   0.999848
  153        0.297475   0.999723
  154        0.314519   0.999671
  155        0.340238   0.999575
  156        0.370180   0.999426
  157        0.376773   0.999387
  158        0.379659   0.999369
  159        0.442938   0.998813
  160        0.444008   0.998800
  161        0.451944   0.998701
  162        0.461999   0.998564
  163        0.510086   0.997680
  164        0.515199   0.997558
  165        0.532558   0.997097
  166        0.536579   0.996978
  167        0.547658   0.996625
  168        0.580566   0.995316
  169        0.598583   0.994397
  170        0.622177   0.992916
  171        0.623677   0.992810
  172        0.633057   0.992108
  173        0.643741   0.991226
  174        0.700557   0.984618
  175        0.706896   0.983627
  176        0.787486   0.964075
  177        0.791457   0.962674
  178        0.806187   0.957006
  179        0.815006   0.953227
  180        0.838266   0.941692
  181        0.846759   0.936850
  182        0.871401   0.920605
  183        0.879312   0.914627
  184        0.901242   0.895873
  185        0.909909   0.887505
  186        0.919615   0.877445
  187        0.940672   0.852945
  188        0.942721   0.850356
  189        0.972298   0.808706
  190        1.086406   0.574576
  191        1.164306   0.382617
  192        1.168960   0.371684
  193        1.187176   0.330227
  194        1.203285   0.295619
  195        1.203920   0.294299
  196        1.239020   0.226954
  197        1.698811   0.002949
  198        1.845408   0.000682
  199        1.915198   0.000340
  200        1.966085   0.000204
  201        2.122160   0.000043
  202        2.161791   0.000029
  203        2.247850   0.000012
  204        3.940460   0.000000
  205        4.142015   0.000000
  206        4.186161   0.000000
  207        4.437796   0.000000
  208        4.512987   0.000000
  209        4.645818   0.000000
  210        5.382589   0.000000
  211        5.419005   0.000000
  212        5.879262   0.000000
  213        5.901364   0.000000
  214        6.222651   0.000000
  215        6.289489   0.000000
  216        6.325371   0.000000
  217        6.441516   0.000000
  218        6.527495   0.000000
  219        6.557300   0.000000
  220        6.629362   0.000000
 
  0.2500000E+00  0.8333333E-01  0.0000000E+00  0.1851852E-01
    1       -8.003863   1.000000
    2       -6.910013   1.000000
    3       -6.277246   1.000000
    4       -6.137254   1.000000
    5       -5.986000   1.000000
    6       -5.572118   1.000000
    7       -5.494137   1.000000
    8       -5.426359   1.000000
    9       -5.411021   1.000000
   10       -5.384750   1.000000
   11       -5.286833   1.000000
   12       -5.155472   1.000000
   13       -5.125798   1.000000
   14       -5.052763   1.000000
   15       -4.995788   1.000000
   16       -4.912751   1.000000
   17       -4.867607   1.000000
   18       -4.652600   1.000000
   19       -4.590558   1.000000
   20       -4.512118   1.000000
   21       -4.499421   1.000000
   22       -4.470692   1.000000
   23       -4.448014   1.000000
   24       -4.430651   1.000000
   25       -4.395704   1.000000
   26       -4.362812   1.000000
   27       -4.325776   1.000000
   28       -4.309996   1.000000
   29       -4.288156   1.000000
   30       -4.239551   1.000000
   31       -4.224701   1.000000
   32       -4.185389   1.000000
   33       -4.156868   1.000000
   34       -4.102085   1.000000
   35       -4.005072   1.000000
   36       -3.911885   1.000000
   37       -3.905621   1.000000
   38       -3.881946   1.000000
   39       -3.852183   1.000000
   40       -3.809298   1.000000
   41       -3.650260   1.000000
   42       -3.611484   1.000000
   43       -3.552332   1.000000
   44       -3.531552   1.000000
   45       -3.512272   1.000000
   46       -3.464354   1.000000
   47       -3.439514   1.000000
   48       -3.361223   1.000000
   49       -3.271706   1.000000
   50       -3.246512   1.000000
   51       -3.198475   1.000000
   52       -3.164545   1.000000
   53       -3.145576   1.000000
   54       -3.123610   1.000000
   55       -3.026588   1.000000
   56       -2.931436   1.000000
   57       -2.921946   1.000000
   58       -2.720247   1.000000
   59       -2.705864   1.000000
   60       -2.698131   1.000000
   61       -2.664703   1.000000
   62       -2.633723   1.000000
   63       -2.622121   1.000000
   64       -2.562392   1.000000
   65       -2.560708   1.000000
   66       -2.515626   1.000000
   67       -2.465715   1.000000
   68       -2.452558   1.000000
   69       -2.433315   1.000000
   70       -2.415247   1.000000
   71       -2.389896   1.000000
   72       -2.375719   1.000000
   73       -2.331083   1.000000
   74       -2.316648   1.000000
   75       -2.223922   1.000000
   76       -2.189516   1.000000
   77       -2.155546   1.000000
   78       -2.120346   1.000000
   79       -2.117059   1.000000
   80       -2.109578   1.000000
   81       -2.088710   1.000000
   82       -2.064067   1.000000
   83       -2.044756   1.000000
   84       -1.998647   1.000000
   85       -1.978949   1.000000
   86       -1.968209   1.000000
   87       -1.919726   1.000000
   88       -1.901651   1.000000
   89       -1.891176   1.000000
   90       -1.886859   1.000000
   91       -1.865623   1.000000
   92       -1.844202   1.000000
   93       -1.813886   1.000000
   94       -1.809094   1.000000
   95       -1.773008   1.000000
   96       -1.761990   1.000000
   97       -1.748818   1.000000
   98       -1.693132   1.000000
   99       -1.653387   1.000000
  100       -1.638772   1.000000
  101       -1.623896   1.000000
  102       -1.606232   1.000000
  103       -1.570849   1.000000
  104       -1.565897   1.000000
  105       -1.522148   1.000000
  106       -1.486358   1.000000
  107       -1.459696   1.000000
  108       -1.444639   1.000000
  109       -1.402175   1.000000
  110       -1.360594   1.000000
  111       -1.340992   1.000000
  112       -1.249620   1.000000
  113       -1.225090   1.000000
  114       -1.201248   1.000000
  115       -1.053595   1.000000
  116       -1.004419   1.000000
  117       -0.954674   1.000000
  118       -0.944194   1.000000
  119       -0.926325   1.000000
  120       -0.912715   1.000000
  121       -0.882102   1.000000
  122       -0.852187   1.000000
  123       -0.801390   1.000000
  124       -0.728592   1.000000
  125       -0.687600   1.000000
  126       -0.635531   1.000000
  127       -0.519599   1.000000
  128       -0.502608   1.000000
  129       -0.485295   1.000000
  130       -0.467519   1.000000
  131       -0.452888   1.000000
  132       -0.418691   1.000000
  133       -0.382959   1.000000
  134       -0.345602   1.000000
  135       -0.311648   0.999999
  136       -0.246874   0.999999
  137       -0.203764   0.999998
  138       -0.153824   0.999997
  139       -0.147802   0.999997
  140       -0.137825   0.999996
  141       -0.113582   0.999995
  142       -0.087025   0.999994
  143       -0.055231   0.999992
  144       -0.017886   0.999988
  145       -0.003611   0.999986
  146        0.008543   0.999985
  147        0.016511   0.999983
  148        0.062435   0.999974
  149        0.094955   0.999963
  150        0.108722   0.999958
  151        0.132533   0.999947
  152        0.176017   0.999918
  153        0.203964   0.999891
  154        0.218923   0.999874
  155        0.254511   0.999819
  156        0.290182   0.999742
  157        0.369004   0.999433
  158        0.420807   0.999049
  159        0.438863   0.998860
  160        0.459095   0.998605
  161        0.505158   0.997791
  162        0.563574   0.996045
  163        0.575565   0.995544
  164        0.591458   0.994780
  165        0.623953   0.992790
  166        0.661742   0.989514
  167        0.697001   0.985147
  168        0.714850   0.982296
  169        0.749347   0.975184
  170        0.798561   0.960036
  171        0.803454   0.958116
  172        0.825964   0.948091
  173        0.843198   0.938925
  174        0.851077   0.934247
  175        0.888958   0.906787
  176        0.902194   0.894981
  177        0.936009   0.858698
  178        0.952034   0.838115
  179        0.975428   0.803816
  180        1.017511   0.728988
  181        1.059578   0.638492
  182        1.067272   0.620549
  183        1.081372   0.586832
  184        1.100589   0.539594
  185        1.121212   0.488124
  186        1.138068   0.446189
  187        1.179751   0.346852
  188        1.203506   0.295158
  189        1.261483   0.189967
  190        1.295724   0.142750
  191        1.323671   0.111838
  192        1.339032   0.097464
  193        1.406270   0.052248
  194        1.455865   0.032482
  195        1.514317   0.018369
  196        1.615887   0.006731
  197        1.665029   0.004129
  198        1.687652   0.003295
  199        2.105523   0.000051
  200        2.384818   0.000003
  201        2.589985   0.000000
  202        2.741630   0.000000
  203        2.798923   0.000000
  204        3.564472   0.000000
  205        3.780596   0.000000
  206        4.309415   0.000000
  207        4.457568   0.000000
  208        4.655822   0.000000
  209        4.971872   0.000000
  210        5.047317   0.000000
  211        5.178956   0.000000
  212        5.335408   0.000000
  213        5.557697   0.000000
  214        5.881065   0.000000
  215        6.024633   0.000000
  216        6.280872   0.000000
  217        6.467635   0.000000
  218        6.581041   0.000000
  219        6.653393   0.000000
  220        6.717070   0.000000
 
  0.1666667E+00  0.2500000E+00  0.0000000E+00  0.1851852E-01
    1       -8.003844   1.000000
    2       -6.909874   1.000000
    3       -6.277143   1.000000
    4       -6.136891   1.000000
    5       -5.986445   1.000000
    6       -5.572211   1.000000
    7       -5.494131   1.000000
    8       -5.426383   1.000000
    9       -5.411167   1.000000
   10       -5.384547   1.000000
   11       -5.286756   1.000000
   12       -5.155161   1.000000
   13       -5.125785   1.000000