 vasp.5.4.1 24Jun15 (build Oct 10 2016 12:42:00) complex                        
  
 executed on           IFC91_ompi date 2018.06.07  21:00:32
 running on   20 total cores
 distrk:  each k-point on   20 cores,    1 groups
 distr:  one band on NCORES_PER_BAND=   4 cores,    5 groups


--------------------------------------------------------------------------------------------------------


 INCAR:
 POTCAR:    PAW_PBE Pt 04Feb2005                  
 POTCAR:    PAW_PBE H 15Jun2001                   
 POTCAR:    PAW_PBE Pt 04Feb2005                  
   VRHFIN =Pt: s1d9                                                             
   LEXCH  = PE                                                                  
   EATOM  =   729.1176 eV,   53.5886 Ry                                         
                                                                                
   TITEL  = PAW_PBE Pt 04Feb2005                                                
   LULTRA =        F    use ultrasoft PP ?                                      
   IUNSCR =        1    unscreen: 0-lin 1-nonlin 2-no                           
   RPACOR =    2.330    partial core radius                                     
   POMASS =  195.080; ZVAL   =   10.000    mass and valenz                      
   RCORE  =    2.600    outmost cutoff radius                                   
   RWIGS  =    2.750; RWIGS  =    1.455    wigner-seitz radius (au A)           
   ENMAX  =  230.283; ENMIN  =  172.712 eV                                      
   ICORE  =        3    local potential                                         
   LCOR   =        T    correct aug charges                                     
   LPAW   =        T    paw PP                                                  
   EAUG   =  358.966                                                            
   DEXC   =    0.000                                                            
   RMAX   =    2.658    core radius for proj-oper                               
   RAUG   =    1.300    factor for augmentation sphere                          
   RDEP   =    2.761    radius for radial grids                                 
   RDEPT  =    2.203    core radius for aug-charge                              
                                                                                
   Atomic configuration                                                         
   16 entries                                                                   
     n  l   j            E        occ.                                          
     1  0  0.50    -78401.1885   2.0000                                         
     2  0  0.50    -13770.7750   2.0000                                         
     2  1  1.50    -11931.0468   6.0000                                         
     3  0  0.50     -3234.7234   2.0000                                         
     3  1  1.50     -2699.2216   6.0000                                         
     3  2  2.50     -2119.5714  10.0000                                         
     4  0  0.50      -695.1528   2.0000                                         
     4  1  1.50      -519.6034   6.0000                                         
     4  2  2.50      -306.6786  10.0000                                         
     4  3  3.50       -70.1041  14.0000                                         
     5  0  0.50      -101.7747   2.0000                                         
     5  1  1.50       -55.9873   6.0000                                         
     5  2  2.50        -6.1423   9.0000                                         
     6  0  0.50        -5.6573   1.0000                                         
     6  1  1.50        -6.8029   0.0000                                         
     5  3  2.50        -1.3606   0.0000                                         
   Description                                                                  
     l       E           TYP  RCUT    TYP  RCUT                                 
     2     -6.1423404     23  2.500                                             
     2     -7.5029230     23  2.500                                             
     0     -5.6573207     23  2.500                                             
     0      0.7416693     23  2.500                                             
     1     -2.7211652     23  2.600                                             
     1     20.4087390     23  2.600                                             
     3     -1.3605826     23  2.500                                             
  local pseudopotential read in
  partial core-charges read in
  partial kinetic energy density read in
  atomic valenz-charges read in
  non local Contribution for L=           2  read in
    real space projection operators read in
  non local Contribution for L=           2  read in
    real space projection operators read in
  non local Contribution for L=           0  read in
    real space projection operators read in
  non local Contribution for L=           0  read in
    real space projection operators read in
  non local Contribution for L=           1  read in
    real space projection operators read in
  non local Contribution for L=           1  read in
    real space projection operators read in
    PAW grid and wavefunctions read in
 
   number of l-projection  operators is LMAX  =           6
   number of lm-projection operators is LMMAX =          18
 
 POTCAR:    PAW_PBE H 15Jun2001                   
   VRHFIN =H: ultrasoft test                                                    
   LEXCH  = PE                                                                  
   EATOM  =    12.4884 eV,    0.9179 Ry                                         
                                                                                
   TITEL  = PAW_PBE H 15Jun2001                                                 
   LULTRA =        F    use ultrasoft PP ?                                      
   IUNSCR =        0    unscreen: 0-lin 1-nonlin 2-no                           
   RPACOR =    0.000    partial core radius                                     
   POMASS =    1.000; ZVAL   =    1.000    mass and valenz                      
   RCORE  =    1.100    outmost cutoff radius                                   
   RWIGS  =    0.700; RWIGS  =    0.370    wigner-seitz radius (au A)           
   ENMAX  =  250.000; ENMIN  =  200.000 eV                                      
   RCLOC  =    0.701    cutoff for local pot                                    
   LCOR   =        T    correct aug charges                                     
   LPAW   =        T    paw PP                                                  
   EAUG   =  400.000                                                            
   RMAX   =    1.123    core radius for proj-oper                               
   RAUG   =    1.200    factor for augmentation sphere                          
   RDEP   =    1.112    radius for radial grids                                 
   RDEPT  =    0.926    core radius for aug-charge                              
                                                                                
   Atomic configuration                                                         
    2 entries                                                                   
     n  l   j            E        occ.                                          
     1  0  0.50        -6.4927   1.0000                                         
     2  1  0.50        -3.4015   0.0000                                         
   Description                                                                  
     l       E           TYP  RCUT    TYP  RCUT                                 
     0     -6.4927494     23  1.100                                             
     0      6.8029130     23  1.100                                             
     1     -4.0817478     23  1.100                                             
  local pseudopotential read in
  atomic valenz-charges read in
  non local Contribution for L=           0  read in
    real space projection operators read in
  non local Contribution for L=           0  read in
    real space projection operators read in
  non local Contribution for L=           1  read in
    real space projection operators read in
    PAW grid and wavefunctions read in
 
   number of l-projection  operators is LMAX  =           3
   number of lm-projection operators is LMMAX =           5
 
 Optimization of the real space projectors (new method)

 maximal supplied QI-value         = 14.36
 optimisation between [QCUT,QGAM] = [ 10.20, 20.39] = [ 29.12,116.47] Ry 
 Optimized for a Real-space Cutoff    1.51 Angstroem

   l    n(q)    QCUT    max X(q) W(low)/X(q) W(high)/X(q)  e(spline) 
   2      8    10.197    66.195    0.45E-03    0.45E-03    0.14E-06
   2      8    10.197    64.643    0.46E-03    0.46E-03    0.14E-06
   0      9    10.197    95.520    0.15E-03    0.11E-03    0.54E-07
   0      9    10.197    63.403    0.15E-03    0.11E-03    0.52E-07
   1      9    10.197    19.961    0.13E-03    0.17E-03    0.77E-07
   1      9    10.197    13.289    0.10E-03    0.15E-03    0.67E-07
 Optimization of the real space projectors (new method)

 maximal supplied QI-value         = 34.20
 optimisation between [QCUT,QGAM] = [  9.92, 20.18] = [ 27.55,114.04] Ry 
 Optimized for a Real-space Cutoff    1.26 Angstroem

   l    n(q)    QCUT    max X(q) W(low)/X(q) W(high)/X(q)  e(spline) 
   0      8     9.919    19.460    0.50E-03    0.23E-03    0.29E-06
   0      8     9.919    12.209    0.48E-03    0.23E-03    0.28E-06
   1      7     9.919     4.655    0.17E-03    0.75E-03    0.30E-06
  PAW_PBE Pt 04Feb2005                  :
 energy of atom  1       EATOM= -729.1176
 kinetic energy error for atom=    0.0056 (will be added to EATOM!!)
  PAW_PBE H 15Jun2001                   :
 energy of atom  2       EATOM=  -12.4884
 kinetic energy error for atom=    0.0098 (will be added to EATOM!!)
 
 
 POSCAR: Pt  H                                   
  positions in cartesian coordinates
  No initial velocities read in
 exchange correlation table for  LEXCH =        8
   RHO(1)=    0.500       N(1)  =     2000
   RHO(2)=  100.500       N(2)  =     4000

 VTST: version 3.1, (03/28/14)

 CHAIN: initializing optimizer
 
 OPT: Using VASP Dynamics algorithm
 CHAIN: Read ICHAIN            0
 
 POSCAR: Pt  H                                   
  positions in cartesian coordinates
  No initial velocities read in
 


--------------------------------------------------------------------------------------------------------


 ion  position               nearest neighbor table
   1  0.000  0.000  0.343-  12 2.81  16 2.81  10 2.81   6 2.81   7 2.81   8 2.81   2 2.81   3 2.81
                             4 2.81
   2  0.333  0.000  0.343-  10 2.81  11 2.81  17 2.81   3 2.81   9 2.81   1 2.81   4 2.81   5 2.81
                             8 2.81
   3  0.667  0.000  0.343-  11 2.81  18 2.81  12 2.81   2 2.81   5 2.81   9 2.81   1 2.81   6 2.81
                             7 2.81
   4  0.000  0.333  0.343-  10 2.81  13 2.81  15 2.81   7 2.81   9 2.81   2 2.81   5 2.81   6 2.81
                             1 2.81
   5  0.333  0.333  0.343-  14 2.81  13 2.81  11 2.81   8 2.81   6 2.81   3 2.81   7 2.81   2 2.81
                             4 2.81
   6  0.667  0.333  0.343-  12 2.81  14 2.81  15 2.81   5 2.81   8 2.81   9 2.81   1 2.81   3 2.81
                             4 2.81
   7  0.000  0.667  0.343-  13 2.81  18 2.81  16 2.81   4 2.81   5 2.81   9 2.81   1 2.81   3 2.81
                             8 2.81
   8  0.333  0.667  0.343-  14 2.81  16 2.81  17 2.81   5 2.81   6 2.81   9 2.81   2 2.81   7 2.81
                             1 2.81
   9  0.667  0.667  0.343-  15 2.81  17 2.81  18 2.81   8 2.81   6 2.81   4 2.81   2 2.81   3 2.81
                             7 2.81
  10  0.111  0.111  0.448-  26 2.80  19 2.80  20 2.80   4 2.81   2 2.81   1 2.81  13 2.81  11 2.81
                            17 2.81  15 2.81  12 2.81  16 2.81
  11  0.444  0.111  0.448-  21 2.78  27 2.79  20 2.80   2 2.81   3 2.81   5 2.81  10 2.81  13 2.81
                            14 2.81  12 2.81  17 2.81  18 2.81
  12  0.778  0.111  0.448-  21 2.78  25 2.79  19 2.80   6 2.81   1 2.81   3 2.81  15 2.81  14 2.81
                            18 2.81  10 2.81  11 2.81  16 2.81
  13  0.111  0.444  0.448-  23 2.78  22 2.79  20 2.80   4 2.81   5 2.81   7 2.81  10 2.81  11 2.81
                            14 2.81  15 2.81  16 2.81  18 2.81
  14  0.444  0.444  0.448-  21 2.78  24 2.79  23 2.79   5 2.81   8 2.81   6 2.81  13 2.81  11 2.81
                            16 2.81  12 2.81  17 2.81  15 2.81
  15  0.778  0.444  0.448-  24 2.78  22 2.79  19 2.80   4 2.81   6 2.81   9 2.81  12 2.81  10 2.81
                            18 2.81  13 2.81  14 2.81  17 2.81
  16  0.111  0.778  0.448-  23 2.78  25 2.79  26 2.80   8 2.81   1 2.81   7 2.81  17 2.81  14 2.81
                            18 2.81  13 2.81  10 2.81  12 2.81
  17  0.444  0.778  0.448-  24 2.78  27 2.79  26 2.80   2 2.81   8 2.81   9 2.81  16 2.81  10 2.81
                            18 2.81  14 2.81  15 2.81  11 2.81
  18  0.778  0.778  0.448-  22 2.79  27 2.79  25 2.79   7 2.81   3 2.81   9 2.81  15 2.81  16 2.81
                            17 2.81  11 2.81  12 2.81  13 2.81
  19  0.890  0.222  0.552-  10 2.80  20 2.80  26 2.80  15 2.80  12 2.80  25 2.80  22 2.80  24 2.81
                            21 2.81  33 2.81  28 2.85  31 2.85
  20  0.222  0.222  0.552-  10 2.80  19 2.80  26 2.80  13 2.80  11 2.80  27 2.80  22 2.80  23 2.81
                            21 2.81  32 2.81  29 2.85  31 2.85
  21  0.556  0.222  0.551-  11 2.78  12 2.78  14 2.78  27 2.81  25 2.81  24 2.81  23 2.81  32 2.81
                            33 2.81  20 2.81  19 2.81  30 2.82
  22  0.889  0.555  0.551-  15 2.79  13 2.79  18 2.79  19 2.80  20 2.80  23 2.81  24 2.81  36 2.81
                            34 2.81  25 2.82  27 2.82  31 2.82
  23  0.222  0.556  0.551-  13 2.78  16 2.78  14 2.79  22 2.81  25 2.81  21 2.81  24 2.81  32 2.81
                            26 2.81  20 2.81  35 2.81  34 2.82
  24  0.556  0.556  0.551-  15 2.78  17 2.78  14 2.79  22 2.81  27 2.81  21 2.81  23 2.81  33 2.81
                            26 2.81  19 2.81  35 2.81  36 2.82
  25  0.889  0.889  0.551-  12 2.79  16 2.79  18 2.79  26 2.80  19 2.80  21 2.81  23 2.81  34 2.81
                            30 2.81  22 2.82  27 2.82  28 2.82
  26  0.222  0.889  0.552-  10 2.80  19 2.80  20 2.80  16 2.80  17 2.80  25 2.80  27 2.80  23 2.81
                            24 2.81  35 2.81  28 2.85  29 2.85
  27  0.555  0.889  0.551-  11 2.79  17 2.79  18 2.79  20 2.80  26 2.80  21 2.81  24 2.81  36 2.81
                            30 2.81  22 2.82  25 2.82  29 2.82
  28  0.997  0.997  0.658-  37 1.87  34 2.77  30 2.77  25 2.82  35 2.82  33 2.82  19 2.85  26 2.85
                            29 2.88  31 2.88
  29  0.339  0.997  0.658-  37 1.87  36 2.77  30 2.77  27 2.82  35 2.82  32 2.82  20 2.85  26 2.85
                            28 2.88  31 2.88
  30  0.667  0.000  0.656-  29 2.77  28 2.77  33 2.81  32 2.81  34 2.81  36 2.81  25 2.81  27 2.81
                            21 2.82
  31  0.997  0.340  0.658-  37 1.86  34 2.77  36 2.77  22 2.82  32 2.82  33 2.82  20 2.85  19 2.85
                            28 2.88  29 2.88
  32  0.335  0.335  0.656-  33 2.78  35 2.78  30 2.81  34 2.81  23 2.81  21 2.81  20 2.81  29 2.82
                            31 2.82
  33  0.664  0.335  0.656-  32 2.78  35 2.78  30 2.81  36 2.81  24 2.81  21 2.81  19 2.81  28 2.82
                            31 2.82
  34  0.000  0.667  0.656-  28 2.77  31 2.77  35 2.81  32 2.81  30 2.81  36 2.81  25 2.81  22 2.81
                            23 2.82
  35  0.334  0.664  0.656-  32 2.78  33 2.78  36 2.81  34 2.81  24 2.81  23 2.81  26 2.81  28 2.82
                            29 2.82
  36  0.666  0.667  0.656-  29 2.77  31 2.77  35 2.81  33 2.81  30 2.81  34 2.81  27 2.81  22 2.81
                            24 2.82
  37  0.111  0.112  0.697-  31 1.86  28 1.87  29 1.87
 
  LATTYP: Found a hexagonal cell.
 ALAT       =     8.4216417639
 C/A-ratio  =     2.5976219743
  
  Lattice vectors:
  
 A1 = (   4.2108208820,  -7.2933557091,   0.0000000000)
 A2 = (  -8.4216417639,   0.0000000000,   0.0000000000)
 A3 = (   0.0000000000,   0.0000000000, -21.8762417060)


Analysis of symmetry for initial positions (statically):
=====================================================================
 Subroutine PRICEL returns:
 Original cell was already a primitive cell.
 

 Routine SETGRP: Setting up the symmetry group for a 
 hexagonal supercell.


 Subroutine GETGRP returns: Found  1 space group operations
 (whereof  1 operations were pure point group operations)
 out of a pool of 24 trial point group operations.


The static configuration has the point symmetry C_1 .


Analysis of symmetry for dynamics (positions and initial velocities):
=====================================================================
 Subroutine PRICEL returns:
 Original cell was already a primitive cell.
 

 Routine SETGRP: Setting up the symmetry group for a 
 hexagonal supercell.


 Subroutine GETGRP returns: Found  1 space group operations
 (whereof  1 operations were pure point group operations)
 out of a pool of 24 trial point group operations.


The dynamic configuration has the point symmetry C_1 .


Analysis of constrained symmetry for selective dynamics:
=====================================================================
 Subroutine PRICEL returns:
 Original cell was already a primitive cell.
 

 Routine SETGRP: Setting up the symmetry group for a 
 hexagonal supercell.


 Subroutine GETGRP returns: Found  1 space group operations
 (whereof  1 operations were pure point group operations)
 out of a pool of 24 trial point group operations.


The constrained configuration has the point symmetry C_1 .
 
 
 KPOINTS: KPOINTS created by Atomic Simulation Env

Automatic generation of k-mesh.
Space group operators:
 irot       det(A)        alpha          n_x          n_y          n_z        tau_x        tau_y        tau_z
    1     1.000000     0.000000     1.000000     0.000000     0.000000     0.000000     0.000000     0.000000
 
 Subroutine IBZKPT returns following result:
 ===========================================
 
 Found     54 irreducible k-points:
 
 Following reciprocal coordinates:
            Coordinates               Weight
  0.083333  0.083333  0.000000     16.000000
  0.000000  0.083333  0.000000     16.000000
 -0.083333  0.000000  0.000000     16.000000
  0.250000  0.083333  0.000000     16.000000
  0.166667  0.250000  0.000000     16.000000
 -0.083333  0.166667  0.000000     16.000000
  0.166667 -0.083333  0.000000     16.000000
 -0.083333 -0.250000  0.000000     16.000000
 -0.250000 -0.166667  0.000000     16.000000
  0.416667  0.083333  0.000000     16.000000
  0.333333  0.416667  0.000000     16.000000
 -0.083333  0.333333  0.000000     16.000000
  0.333333 -0.083333  0.000000     16.000000
 -0.083333 -0.416667  0.000000     16.000000
 -0.416667 -0.333333  0.000000     16.000000
 -0.416667  0.083333  0.000000     16.000000
  0.500000 -0.416667  0.000000     16.000000
 -0.083333  0.500000  0.000000     16.000000
  0.500000 -0.083333  0.000000     16.000000
 -0.083333  0.416667  0.000000     16.000000
  0.416667  0.500000  0.000000     16.000000
 -0.250000  0.083333  0.000000     16.000000
 -0.333333 -0.250000  0.000000     16.000000
 -0.083333 -0.333333  0.000000     16.000000
 -0.333333 -0.083333  0.000000     16.000000
 -0.083333  0.250000  0.000000     16.000000
  0.250000  0.333333  0.000000     16.000000
 -0.083333  0.083333  0.000000     16.000000
 -0.166667 -0.083333  0.000000     16.000000
 -0.083333 -0.166667  0.000000     16.000000
  0.250000  0.250000  0.000000     16.000000
  0.000000  0.250000  0.000000     16.000000
 -0.250000  0.000000  0.000000     16.000000
  0.416667  0.250000  0.000000     16.000000
  0.166667  0.416667  0.000000     16.000000
 -0.250000  0.166667  0.000000     16.000000
  0.166667 -0.250000  0.000000     16.000000
 -0.250000 -0.416667  0.000000     16.000000
 -0.416667 -0.166667  0.000000     16.000000
 -0.416667  0.250000  0.000000     16.000000
  0.333333 -0.416667  0.000000     16.000000
 -0.250000  0.333333  0.000000     16.000000
  0.333333 -0.250000  0.000000     16.000000
 -0.250000  0.416667  0.000000     16.000000
  0.416667 -0.333333  0.000000     16.000000
 -0.250000  0.250000  0.000000     16.000000
  0.500000 -0.250000  0.000000     16.000000
 -0.250000  0.500000  0.000000     16.000000
  0.416667  0.416667  0.000000     16.000000
  0.000000  0.416667  0.000000     16.000000
 -0.416667 -0.000000  0.000000     16.000000
 -0.416667  0.416667  0.000000     16.000000
  0.166667 -0.416667  0.000000     16.000000
 -0.416667  0.166667  0.000000     16.000000
 
 Following cartesian coordinates:
            Coordinates               Weight
  0.009895  0.005713  0.000000     16.000000
  0.000000  0.011426  0.000000     16.000000
 -0.009895  0.005713  0.000000     16.000000
  0.029685 -0.005713  0.000000     16.000000
  0.019790  0.022852  0.000000     16.000000
 -0.009895  0.028565  0.000000     16.000000
  0.019790 -0.022852  0.000000     16.000000
 -0.009895 -0.028565  0.000000     16.000000
 -0.029685 -0.005713  0.000000     16.000000
  0.049476 -0.017139  0.000000     16.000000
  0.039581  0.034278  0.000000     16.000000
 -0.009895  0.051417  0.000000     16.000000
  0.039581 -0.034278  0.000000     16.000000
 -0.009895 -0.051417  0.000000     16.000000
 -0.049476 -0.017139  0.000000     16.000000
 -0.049476  0.039991  0.000000     16.000000
  0.059371 -0.091407  0.000000     16.000000
 -0.009895  0.074269  0.000000     16.000000
  0.059371 -0.045704  0.000000     16.000000
 -0.009895  0.062843  0.000000     16.000000
  0.049476  0.039991  0.000000     16.000000
 -0.029685  0.028565  0.000000     16.000000
 -0.039581 -0.011426  0.000000     16.000000
 -0.009895 -0.039991  0.000000     16.000000
 -0.039581  0.011426  0.000000     16.000000
 -0.009895  0.039991  0.000000     16.000000
  0.029685  0.028565  0.000000     16.000000
 -0.009895  0.017139  0.000000     16.000000
 -0.019790  0.000000  0.000000     16.000000
 -0.009895 -0.017139  0.000000     16.000000
  0.029685  0.017139  0.000000     16.000000
  0.000000  0.034278  0.000000     16.000000
 -0.029685  0.017139  0.000000     16.000000
  0.049476  0.005713  0.000000     16.000000
  0.019790  0.045704  0.000000     16.000000
 -0.029685  0.039991  0.000000     16.000000
  0.019790 -0.045704  0.000000     16.000000
 -0.029685 -0.039991  0.000000     16.000000
 -0.049476  0.005713  0.000000     16.000000
 -0.049476  0.062843  0.000000     16.000000
  0.039581 -0.079981  0.000000     16.000000
 -0.029685  0.062843  0.000000     16.000000
  0.039581 -0.057130  0.000000     16.000000
 -0.029685  0.074269  0.000000     16.000000
  0.049476 -0.074269  0.000000     16.000000
 -0.029685  0.051417  0.000000     16.000000
  0.059371 -0.068556  0.000000     16.000000
 -0.029685  0.085694  0.000000     16.000000
  0.049476  0.028565  0.000000     16.000000
  0.000000  0.057130  0.000000     16.000000
 -0.049476  0.028565  0.000000     16.000000
 -0.049476  0.085694  0.000000     16.000000
  0.019790 -0.068556  0.000000     16.000000
 -0.049476  0.051417  0.000000     16.000000
 


--------------------------------------------------------------------------------------------------------




 Dimension of arrays:
   k-points           NKPTS =     54   k-points in BZ     NKDIM =     54   number of bands    NBANDS=    220
   number of dos      NEDOS =    301   number of ions     NIONS =     37
   non local maximal  LDIM  =      6   non local SUM 2l+1 LMDIM =     18
   total plane-waves  NPLWV = 190512
   max r-space proj   IRMAX =   2088   max aug-charges    IRDMAX=   8786
   dimension x,y,z NGX =    42 NGY =   42 NGZ =  108
   dimension x,y,z NGXF=    84 NGYF=   84 NGZF=  216
   support grid    NGXF=    84 NGYF=   84 NGZF=  216
   ions per type =              36   1
 NGX,Y,Z   is equivalent  to a cutoff of   8.29,  8.29,  8.21 a.u.
 NGXF,Y,Z  is equivalent  to a cutoff of  16.58, 16.58, 16.41 a.u.


 I would recommend the setting:
   dimension x,y,z NGX =    41 NGY =   41 NGZ =  107
 SYSTEM =  unknown system                          
 POSCAR =  Pt  H                                   

 Startparameter for this run:
   NWRITE =      2    write-flag & timer
   PREC   = normal    normal or accurate (medium, high low for compatibility)
   ISTART =      0    job   : 0-new  1-cont  2-samecut
   ICHARG =      2    charge: 1-file 2-atom 10-const
   ISPIN  =      1    spin polarized calculation?
   LNONCOLLINEAR =      F non collinear calculations
   LSORBIT =      F    spin-orbit coupling
   INIWAV =      1    electr: 0-lowe 1-rand  2-diag
   LASPH  =      F    aspherical Exc in radial PAW
   METAGGA=      F    non-selfconsistent MetaGGA calc.

 Electronic Relaxation 1
   ENCUT  =  400.0 eV  29.40 Ry    5.42 a.u.  13.73 13.73 35.67*2*pi/ulx,y,z
   ENINI  =  400.0     initial cutoff
   ENAUG  =  400.0 eV  augmentation charge cutoff
   NELM   =     60;   NELMIN=  4; NELMDL= -4     # of ELM steps 
   EDIFF  = 0.1E-05   stopping-criterion for ELM
   LREAL  =      T    real-space projection
   NLSPLINE    = F    spline interpolate recip. space projectors
   LCOMPAT=      F    compatible to vasp.4.4
   GGA_COMPAT  = T    GGA compatible to vasp.4.4-vasp.4.6
   LMAXPAW     = -100 max onsite density
   LMAXMIX     =    2 max onsite mixed and CHGCAR
   VOSKOWN=      0    Vosko Wilk Nusair interpolation
   ROPT   =   -0.00050  -0.00050
 Ionic relaxation
   EDIFFG = 0.1E-04   stopping-criterion for IOM
   NSW    =      0    number of steps for IOM
   NBLOCK =      1;   KBLOCK =      1    inner block; outer block 
   IBRION =     -1    ionic relax: 0-MD 1-quasi-New 2-CG
   NFREE  =      0    steps in history (QN), initial steepest desc. (CG)
   ISIF   =      2    stress and relaxation
   IWAVPR =     10    prediction:  0-non 1-charg 2-wave 3-comb
   ISYM   =      2    0-nonsym 1-usesym 2-fastsym
   LCORR  =      T    Harris-Foulkes like correction to forces

   POTIM  = 0.5000    time-step for ionic-motion
   TEIN   =    0.0    initial temperature
   TEBEG  =    0.0;   TEEND  =   0.0 temperature during run
   SMASS  =  -3.00    Nose mass-parameter (am)
   estimated Nose-frequenzy (Omega)   =  0.10E-29 period in steps =****** mass=  -0.162E-26a.u.
   SCALEE = 1.0000    scale energy and forces
   NPACO  =    256;   APACO  = 16.0  distance and # of slots for P.C.
   PSTRESS=    0.0 pullay stress

  Mass of Ions in am
   POMASS = 195.08  1.00
  Ionic Valenz
   ZVAL   =  10.00  1.00
  Atomic Wigner-Seitz radii
   RWIGS  =  -1.00 -1.00
  virtual crystal weights 
   VCA    =   1.00  1.00
   NELECT =     361.0000    total number of electrons
   NUPDOWN=      -1.0000    fix difference up-down

 DOS related values:
   EMIN   =  10.00;   EMAX   =-10.00  energy-range for DOS
   EFERMI =   0.00
   ISMEAR =    -1;   SIGMA  =   0.10  broadening in eV -4-tet -1-fermi 0-gaus

 Electronic relaxation 2 (details)
   IALGO  =     68    algorithm
   LDIAG  =      T    sub-space diagonalisation (order eigenvalues)
   LSUBROT=      F    optimize rotation matrix (better conditioning)
   TURBO    =      0    0=normal 1=particle mesh
   IRESTART =      0    0=no restart 2=restart with 2 vectors
   NREBOOT  =      0    no. of reboots
   NMIN     =      0    reboot dimension
   EREF     =   0.00    reference energy to select bands
   IMIX   =      4    mixing-type and parameters
     AMIX     =   0.40;   BMIX     =  1.00
     AMIX_MAG =   1.60;   BMIX_MAG =  1.00
     AMIN     =   0.10
     WC   =   100.;   INIMIX=   1;  MIXPRE=   1;  MAXMIX= -45

 Intra band minimization:
   WEIMIN = 0.0000     energy-eigenvalue tresh-hold
   EBREAK =  0.11E-08  absolut break condition
   DEPER  =   0.30     relativ break condition  

   TIME   =   0.40     timestep for ELM

  volume/ion in A,a.u.               =      36.32       245.07
  Fermi-wavevector in a.u.,A,eV,Ry     =   1.056359  1.996229 15.182669  1.115895
  Thomas-Fermi vector in A             =   2.191592
 
 Write flags
   LWAVE  =      F    write WAVECAR
   LCHARG =      F    write CHGCAR
   LVTOT  =      F    write LOCPOT, total local potential
   LVHAR  =      F    write LOCPOT, Hartree potential only
   LELF   =      F    write electronic localiz. function (ELF)
   LORBIT =      0    0 simple, 1 ext, 2 COOP (PROOUT)


 Dipole corrections
   LMONO  =      F    monopole corrections only (constant potential shift)
   LDIPOL =      F    correct potential (dipole corrections)
   IDIPOL =      0    1-x, 2-y, 3-z, 4-all directions 
   EPSILON=  1.0000000 bulk dielectric constant

 Exchange correlation treatment:
   GGA     =    PE    GGA type
   LEXCH   =     8    internal setting for exchange type
   VOSKOWN=      0    Vosko Wilk Nusair interpolation
   LHFCALC =     F    Hartree Fock is set to
   LHFONE  =     F    Hartree Fock one center treatment
   AEXX    =    0.0000 exact exchange contribution

 Linear response parameters
   LEPSILON=     F    determine dielectric tensor
   LRPA    =     F    only Hartree local field effects (RPA)
   LNABLA  =     F    use nabla operator in PAW spheres
   LVEL    =     F    velocity operator in full k-point grid
   LINTERFAST=   F  fast interpolation
   KINTER  =     0    interpolate to denser k-point grid
   CSHIFT  =0.1000    complex shift for real part using Kramers Kronig
   OMEGAMAX=  -1.0    maximum frequency
   DEG_THRESHOLD= 0.2000000E-02 threshold for treating states as degnerate
   RTIME   =    0.100 relaxation time in fs

 Orbital magnetization related:
   ORBITALMAG=     F  switch on orbital magnetization
   LCHIMAG   =     F  perturbation theory with respect to B field
   DQ        =  0.001000  dq finite difference perturbation B field



--------------------------------------------------------------------------------------------------------


 Static calculation
 charge density and potential will be updated during run
 non-spin polarized calculation
 RMM-DIIS sequential band-by-band and
  variant of blocked Davidson during initial phase
 perform sub-space diagonalisation
    before iterative eigenvector-optimisation
 modified Broyden-mixing scheme, WC =      100.0
 initial mixing is a Kerker type mixing with AMIX =  0.4000 and BMIX =      1.0000
 Hartree-type preconditioning will be used
 using additional bands           39
 real space projection scheme for non local part
 use partial core corrections
 calculate Harris-corrections to forces 
   (improved forces if not selfconsistent)
 use gradient corrections 
 use of overlap-Matrix (Vanderbilt PP)
 Fermi-smearing in eV        SIGMA  =   0.10


--------------------------------------------------------------------------------------------------------


  energy-cutoff  :      400.00
  volume of cell :     1343.68
      direct lattice vectors                 reciprocal lattice vectors
     8.421641764  0.000000000  0.000000000     0.118741693 -0.068555548  0.000000000
     4.210820882  7.293355709  0.000000000     0.000000000  0.137111097  0.000000000
     0.000000000  0.000000000 21.876241706     0.000000000  0.000000000  0.045711691

  length of vectors
     8.421641764  8.421641764 21.876241706     0.137111097  0.137111097  0.045711691


 
 k-points in units of 2pi/SCALE and weight: KPOINTS created by Atomic Simulation Env
   0.00989514  0.00571296  0.00000000       0.019
   0.00000000  0.01142592  0.00000000       0.019
  -0.00989514  0.00571296  0.00000000       0.019
   0.02968542 -0.00571296  0.00000000       0.019
   0.01979028  0.02285185  0.00000000       0.019
  -0.00989514  0.02856481  0.00000000       0.019
   0.01979028 -0.02285185  0.00000000       0.019
  -0.00989514 -0.02856481  0.00000000       0.019
  -0.02968542 -0.00571296  0.00000000       0.019
   0.04947571 -0.01713889  0.00000000       0.019
   0.03958056  0.03427777  0.00000000       0.019
  -0.00989514  0.05141666  0.00000000       0.019
   0.03958056 -0.03427777  0.00000000       0.019
  -0.00989514 -0.05141666  0.00000000       0.019
  -0.04947571 -0.01713889  0.00000000       0.019
  -0.04947571  0.03999074  0.00000000       0.019
   0.05937085 -0.09140740  0.00000000       0.019
  -0.00989514  0.07426851  0.00000000       0.019
   0.05937085 -0.04570370  0.00000000       0.019
  -0.00989514  0.06284259  0.00000000       0.019
   0.04947571  0.03999074  0.00000000       0.019
  -0.02968542  0.02856481  0.00000000       0.019
  -0.03958056 -0.01142592  0.00000000       0.019
  -0.00989514 -0.03999074  0.00000000       0.019
  -0.03958056  0.01142592  0.00000000       0.019
  -0.00989514  0.03999074  0.00000000       0.019
   0.02968542  0.02856481  0.00000000       0.019
  -0.00989514  0.01713889  0.00000000       0.019
  -0.01979028  0.00000000  0.00000000       0.019
  -0.00989514 -0.01713889  0.00000000       0.019
   0.02968542  0.01713889  0.00000000       0.019
   0.00000000  0.03427777  0.00000000       0.019
  -0.02968542  0.01713889  0.00000000       0.019
   0.04947571  0.00571296  0.00000000       0.019
   0.01979028  0.04570370  0.00000000       0.019
  -0.02968542  0.03999074  0.00000000       0.019
   0.01979028 -0.04570370  0.00000000       0.019
  -0.02968542 -0.03999074  0.00000000       0.019
  -0.04947571  0.00571296  0.00000000       0.019
  -0.04947571  0.06284259  0.00000000       0.019
   0.03958056 -0.07998147  0.00000000       0.019
  -0.02968542  0.06284259  0.00000000       0.019
   0.03958056 -0.05712962  0.00000000       0.019
  -0.02968542  0.07426851  0.00000000       0.019
   0.04947571 -0.07426851  0.00000000       0.019
  -0.02968542  0.05141666  0.00000000       0.019
   0.05937085 -0.06855555  0.00000000       0.019
  -0.02968542  0.08569444  0.00000000       0.019
   0.04947571  0.02856481  0.00000000       0.019
   0.00000000  0.05712962  0.00000000       0.019
  -0.04947571  0.02856481  0.00000000       0.019
  -0.04947571  0.08569444  0.00000000       0.019
   0.01979028 -0.06855555  0.00000000       0.019
  -0.04947571  0.05141666  0.00000000       0.019
 
 k-points in reciprocal lattice and weights: KPOINTS created by Atomic Simulation Env
   0.08333333  0.08333333  0.00000000       0.019
   0.00000000  0.08333333  0.00000000       0.019
  -0.08333333  0.00000000  0.00000000       0.019
   0.25000000  0.08333333  0.00000000       0.019
   0.16666667  0.25000000  0.00000000       0.019
  -0.08333333  0.16666667  0.00000000       0.019
   0.16666667 -0.08333333  0.00000000       0.019
  -0.08333333 -0.25000000  0.00000000       0.019
  -0.25000000 -0.16666667  0.00000000       0.019
   0.41666667  0.08333333  0.00000000       0.019
   0.33333333  0.41666667  0.00000000       0.019
  -0.08333333  0.33333333  0.00000000       0.019
   0.33333333 -0.08333333  0.00000000       0.019
  -0.08333333 -0.41666667  0.00000000       0.019
  -0.41666667 -0.33333333  0.00000000       0.019
  -0.41666667  0.08333333  0.00000000       0.019
   0.50000000 -0.41666667  0.00000000       0.019
  -0.08333333  0.50000000  0.00000000       0.019
   0.50000000 -0.08333333  0.00000000       0.019
  -0.08333333  0.41666667  0.00000000       0.019
   0.41666667  0.50000000  0.00000000       0.019
  -0.25000000  0.08333333  0.00000000       0.019
  -0.33333333 -0.25000000  0.00000000       0.019
  -0.08333333 -0.33333333  0.00000000       0.019
  -0.33333333 -0.08333333  0.00000000       0.019
  -0.08333333  0.25000000  0.00000000       0.019
   0.25000000  0.33333333  0.00000000       0.019
  -0.08333333  0.08333333  0.00000000       0.019
  -0.16666667 -0.08333333  0.00000000       0.019
  -0.08333333 -0.16666667  0.00000000       0.019
   0.25000000  0.25000000  0.00000000       0.019
   0.00000000  0.25000000  0.00000000       0.019
  -0.25000000  0.00000000  0.00000000       0.019
   0.41666667  0.25000000  0.00000000       0.019
   0.16666667  0.41666667  0.00000000       0.019
  -0.25000000  0.16666667  0.00000000       0.019
   0.16666667 -0.25000000  0.00000000       0.019
  -0.25000000 -0.41666667  0.00000000       0.019
  -0.41666667 -0.16666667  0.00000000       0.019
  -0.41666667  0.25000000  0.00000000       0.019
   0.33333333 -0.41666667  0.00000000       0.019
  -0.25000000  0.33333333  0.00000000       0.019
   0.33333333 -0.25000000  0.00000000       0.019
  -0.25000000  0.41666667  0.00000000       0.019
   0.41666667 -0.33333333  0.00000000       0.019
  -0.25000000  0.25000000  0.00000000       0.019
   0.50000000 -0.25000000  0.00000000       0.019
  -0.25000000  0.50000000  0.00000000       0.019
   0.41666667  0.41666667  0.00000000       0.019
   0.00000000  0.41666667  0.00000000       0.019
  -0.41666667 -0.00000000  0.00000000       0.019
  -0.41666667  0.41666667  0.00000000       0.019
   0.16666667 -0.41666667  0.00000000       0.019
  -0.41666667  0.16666667  0.00000000       0.019
 
 position of ions in fractional coordinates (direct lattice) 
   0.00000000  0.00000000  0.34283768
   0.33333333  0.00000000  0.34283768
   0.66666667  0.00000000  0.34283768
   0.00000000  0.33333333  0.34283768
   0.33333333  0.33333333  0.34283768
   0.66666667  0.33333333  0.34283768
   0.00000000  0.66666667  0.34283768
   0.33333333  0.66666667  0.34283768
   0.66666667  0.66666667  0.34283768
   0.11111111  0.11111111  0.44761256
   0.44444444  0.11111111  0.44761256
   0.77777778  0.11111111  0.44761256
   0.11111111  0.44444444  0.44761256
   0.44444444  0.44444444  0.44761256
   0.77777778  0.44444444  0.44761256
   0.11111111  0.77777778  0.44761256
   0.44444444  0.77777778  0.44761256
   0.77777778  0.77777778  0.44761256
   0.88957354  0.22192121  0.55197483
   0.22184745  0.22192564  0.55197916
   0.55560047  0.22212426  0.55111662
   0.88914713  0.55502084  0.55143657
   0.22210731  0.55559497  0.55112482
   0.55561817  0.55558382  0.55112383
   0.88919420  0.88927977  0.55143468
   0.22192341  0.88947715  0.55193498
   0.55485472  0.88929381  0.55143324
   0.99703119  0.99714358  0.65829919
   0.33917174  0.99714233  0.65829595
   0.66651762  0.00030216  0.65642122
   0.99687936  0.33957639  0.65829844
   0.33452513  0.33464418  0.65639893
   0.66416332  0.33464339  0.65640240
   0.00013747  0.66678413  0.65642089
   0.33449317  0.66434345  0.65639776
   0.66640679  0.66677830  0.65642263
   0.11057118  0.11203250  0.69700663
 
 position of ions in cartesian coordinates  (Angst):
   0.00000000  0.00000000  7.50000000
   2.80721392  0.00000000  7.50000000
   5.61442784  0.00000000  7.50000000
   1.40360696  2.43111857  7.50000000
   4.21082088  2.43111857  7.50000000
   7.01803480  2.43111857  7.50000000
   2.80721392  4.86223714  7.50000000
   5.61442784  4.86223714  7.50000000
   8.42164176  4.86223714  7.50000000
   1.40360696  0.81037286  9.79208057
   4.21082088  0.81037286  9.79208057
   7.01803480  0.81037286  9.79208057
   2.80721392  3.24149143  9.79208057
   5.61442784  3.24149143  9.79208057
   8.42164176  3.24149143  9.79208057
   4.21082088  5.67261000  9.79208057
   7.01803480  5.67261000  9.79208057
   9.82524872  5.67261000  9.79208057
   8.42614018  1.61855034 12.07513490
   2.80280893  1.61858266 12.07522951
   5.61439358  1.62003122 12.05636029
   9.82517193  4.04796438 12.06335977
   4.21001909  4.05215176 12.05653983
   7.01868116  4.05207045 12.05651809
  11.23307285  6.48583368 12.06331843
   5.61438838  6.48727324 12.07426300
   8.41744458  6.48593607 12.06328677
  12.59543250  7.27252280 14.40111230
   7.05517062  7.27251368 14.40104130
   5.61444497  0.00220374 14.36002938
   9.82525619  2.47665137 14.40109580
   4.22637754  2.44067902 14.35954172
   7.00246893  2.44067328 14.35961766
   2.80886627  4.86309386 14.36002214
   5.61441296  4.84529313 14.35951599
   8.41992329  4.86305134 14.36006021
   1.40293970  0.81709291 15.24788553
 


--------------------------------------------------------------------------------------------------------


 k-point  1 :   0.0833 0.0833 0.0000  plane waves:   24413
 k-point  2 :   0.0000 0.0833 0.0000  plane waves:   24413
 k-point  3 :  -0.0833 0.0000 0.0000  plane waves:   24413
 k-point  4 :   0.2500 0.0833 0.0000  plane waves:   24407
 k-point  5 :   0.1667 0.2500 0.0000  plane waves:   24407
 k-point  6 :  -0.0833 0.1667 0.0000  plane waves:   24407
 k-point  7 :   0.1667-0.0833 0.0000  plane waves:   24407
 k-point  8 :  -0.0833-0.2500 0.0000  plane waves:   24407
 k-point  9 :  -0.2500-0.1667 0.0000  plane waves:   24407
 k-point 10 :   0.4167 0.0833 0.0000  plane waves:   24416
 k-point 11 :   0.3333 0.4167 0.0000  plane waves:   24416
 k-point 12 :  -0.0833 0.3333 0.0000  plane waves:   24416
 k-point 13 :   0.3333-0.0833 0.0000  plane waves:   24416
 k-point 14 :  -0.0833-0.4167 0.0000  plane waves:   24416
 k-point 15 :  -0.4167-0.3333 0.0000  plane waves:   24416
 k-point 16 :  -0.4167 0.0833 0.0000  plane waves:   24418
 k-point 17 :   0.5000-0.4167 0.0000  plane waves:   24418
 k-point 18 :  -0.0833 0.5000 0.0000  plane waves:   24418
 k-point 19 :   0.5000-0.0833 0.0000  plane waves:   24418
 k-point 20 :  -0.0833 0.4167 0.0000  plane waves:   24418
 k-point 21 :   0.4167 0.5000 0.0000  plane waves:   24418
 k-point 22 :  -0.2500 0.0833 0.0000  plane waves:   24416
 k-point 23 :  -0.3333-0.2500 0.0000  plane waves:   24416
 k-point 24 :  -0.0833-0.3333 0.0000  plane waves:   24416
 k-point 25 :  -0.3333-0.0833 0.0000  plane waves:   24416
 k-point 26 :  -0.0833 0.2500 0.0000  plane waves:   24416
 k-point 27 :   0.2500 0.3333 0.0000  plane waves:   24416
 k-point 28 :  -0.0833 0.0833 0.0000  plane waves:   24411
 k-point 29 :  -0.1667-0.0833 0.0000  plane waves:   24411
 k-point 30 :  -0.0833-0.1667 0.0000  plane waves:   24411
 k-point 31 :   0.2500 0.2500 0.0000  plane waves:   24440
 k-point 32 :   0.0000 0.2500 0.0000  plane waves:   24440
 k-point 33 :  -0.2500 0.0000 0.0000  plane waves:   24440
 k-point 34 :   0.4167 0.2500 0.0000  plane waves:   24406
 k-point 35 :   0.1667 0.4167 0.0000  plane waves:   24406
 k-point 36 :  -0.2500 0.1667 0.0000  plane waves:   24406
 k-point 37 :   0.1667-0.2500 0.0000  plane waves:   24406
 k-point 38 :  -0.2500-0.4167 0.0000  plane waves:   24406
 k-point 39 :  -0.4167-0.1667 0.0000  plane waves:   24406
 k-point 40 :  -0.4167 0.2500 0.0000  plane waves:   24402
 k-point 41 :   0.3333-0.4167 0.0000  plane waves:   24402
 k-point 42 :  -0.2500 0.3333 0.0000  plane waves:   24402
 k-point 43 :   0.3333-0.2500 0.0000  plane waves:   24402
 k-point 44 :  -0.2500 0.4167 0.0000  plane waves:   24402
 k-point 45 :   0.4167-0.3333 0.0000  plane waves:   24402
 k-point 46 :  -0.2500 0.2500 0.0000  plane waves:   24390
 k-point 47 :   0.5000-0.2500 0.0000  plane waves:   24390
 k-point 48 :  -0.2500 0.5000 0.0000  plane waves:   24390
 k-point 49 :   0.4167 0.4167 0.0000  plane waves:   24430
 k-point 50 :   0.0000 0.4167 0.0000  plane waves:   24430
 k-point 51 :  -0.4167-0.0000 0.0000  plane waves:   24430
 k-point 52 :  -0.4167 0.4167 0.0000  plane waves:   24404
 k-point 53 :   0.1667-0.4167 0.0000  plane waves:   24404
 k-point 54 :  -0.4167 0.1667 0.0000  plane waves:   24404

 maximum and minimum number of plane-waves per node :      6146     6048

 maximum number of plane-waves:     24440
 maximum index in each direction: 
   IXMAX=   14   IYMAX=   14   IZMAX=   35
   IXMIN=  -14   IYMIN=  -14   IZMIN=  -35

 WARNING: aliasing errors must be expected set NGX to  58 to avoid them
 WARNING: aliasing errors must be expected set NGY to  58 to avoid them
 WARNING: aliasing errors must be expected set NGZ to 142 to avoid them
 aliasing errors are usually negligible using standard VASP settings
 and one can safely disregard these warnings

 real space projection operators:
  total allocation   :      10049.11 KBytes
  max/ min on nodes  :       2655.06       2387.29


 parallel 3D FFT for wavefunctions:
    minimum data exchange during FFTs selected (reduces bandwidth)
 parallel 3D FFT for charge:
    minimum data exchange during FFTs selected (reduces bandwidth)


 total amount of memory used by VASP on root node   285643. kBytes
========================================================================

   base      :      30000. kBytes
   nonlr-proj:       4564. kBytes
   fftplans  :       4497. kBytes
   grid      :       7117. kBytes
   one-center:        155. kBytes
   wavefun   :     239310. kBytes
 
     INWAV:  cpu time    0.0000: real time    0.0000
 Broyden mixing: mesh for mixing (old mesh)
   NGX = 27   NGY = 27   NGZ = 71
  (NGX  = 84   NGY  = 84   NGZ  =216)
  gives a total of  51759 points

 initial charge density was supplied:
 charge density of overlapping atoms calculated
 number of electron     361.0000000 magnetization 
 keeping initial charge density in first step


--------------------------------------------------------------------------------------------------------


 Maximum index for non-local projection operator          592
 Maximum index for augmentation-charges          868 (set IRDMAX)


--------------------------------------------------------------------------------------------------------


 First call to EWALD:  gamma=   0.161
 Maximum number of real-space cells 4x 4x 2
 Maximum number of reciprocal cells 2x 2x 5

 FEWALD executed in parallel
    FEWALD:  cpu time    0.0020: real time    0.0023


----------------------------------------- Iteration    1(   1)  ---------------------------------------


    POTLOK:  cpu time    1.4808: real time    1.4804
    SETDIJ:  cpu time    0.0090: real time    0.0082
     EDDAV:  cpu time   72.1940: real time   72.3272
       DOS:  cpu time    0.0020: real time    0.0027
    --------------------------------------------
      LOOP:  cpu time   73.6878: real time   73.8318

 eigenvalue-minimisations  : 23810
 total energy-change (2. order) : 0.2159984E+04  (-0.1420892E+05)
 number of electron     361.0000000 magnetization 
 augmentation part      361.0000000 magnetization 

 Free energy of the ion-electron system (eV)
  ---------------------------------------------------
  alpha Z        PSCENC =       920.05075105
  Ewald energy   TEWEN  =     93265.06768705
  -Hartree energ DENC   =   -121324.45657792
  -exchange      EXHF   =         0.00000000
  -V(xc)+E(xc)   XCENC  =       123.75272775
  PAW double counting   =     25062.58130285   -24044.39352455
  entropy T*S    EENTRO =        -0.56596307
  eigenvalues    EBANDS =      1897.43838983
  atomic energy  EATOM  =     26260.50889777
  Solvation  Ediel_sol  =         0.00000000
  ---------------------------------------------------
  free energy    TOTEN  =      2159.98369077 eV

  energy without entropy =     2160.54965384  energy(sigma->0) =     2160.26667230


--------------------------------------------------------------------------------------------------------




----------------------------------------- Iteration    1(   2)  ---------------------------------------


     EDDAV:  cpu time   84.1742: real time   84.2595
       DOS:  cpu time    0.0040: real time    0.0037
    --------------------------------------------
      LOOP:  cpu time   84.2052: real time   84.3335

 eigenvalue-minimisations  : 27870
 total energy-change (2. order) :-0.2231740E+04  (-0.2057463E+04)
 number of electron     361.0000000 magnetization 
 augmentation part      361.0000000 magnetization 

 Free energy of the ion-electron system (eV)
  ---------------------------------------------------
  alpha Z        PSCENC =       920.05075105
  Ewald energy   TEWEN  =     93265.06768705
  -Hartree energ DENC   =   -121324.45657792
  -exchange      EXHF   =         0.00000000
  -V(xc)+E(xc)   XCENC  =       123.75272775
  PAW double counting   =     25062.58130285   -24044.39352455
  entropy T*S    EENTRO =        -1.09609495
  eigenvalues    EBANDS =      -333.77161645
  atomic energy  EATOM  =     26260.50889777
  Solvation  Ediel_sol  =         0.00000000
  ---------------------------------------------------
  free energy    TOTEN  =       -71.75644741 eV

  energy without entropy =      -70.66035245  energy(sigma->0) =      -71.20839993


--------------------------------------------------------------------------------------------------------




----------------------------------------- Iteration    1(   3)  ---------------------------------------


     EDDAV:  cpu time   84.8311: real time   85.3228
       DOS:  cpu time    0.0040: real time    0.0046
    --------------------------------------------
      LOOP:  cpu time   84.8371: real time   85.3522

 eigenvalue-minimisations  : 28250
 total energy-change (2. order) :-0.1493726E+03  (-0.1341187E+03)
 number of electron     361.0000000 magnetization 
 augmentation part      361.0000000 magnetization 

 Free energy of the ion-electron system (eV)
  ---------------------------------------------------
  alpha Z        PSCENC =       920.05075105
  Ewald energy   TEWEN  =     93265.06768705
  -Hartree energ DENC   =   -121324.45657792
  -exchange      EXHF   =         0.00000000
  -V(xc)+E(xc)   XCENC  =       123.75272775
  PAW double counting   =     25062.58130285   -24044.39352455
  entropy T*S    EENTRO =        -1.91807203
  eigenvalues    EBANDS =      -482.32219512
  atomic energy  EATOM  =     26260.50889777
  Solvation  Ediel_sol  =         0.00000000
  ---------------------------------------------------
  free energy    TOTEN  =      -221.12900315 eV

  energy without entropy =     -219.21093111  energy(sigma->0) =     -220.16996713


--------------------------------------------------------------------------------------------------------




----------------------------------------- Iteration    1(   4)  ---------------------------------------


     EDDAV:  cpu time   92.5359: real time   92.5392
       DOS:  cpu time    0.0040: real time    0.0041
    CHARGE:  cpu time    2.3386: real time    2.3376
    MIXING:  cpu time    0.0020: real time    0.0021
    --------------------------------------------
      LOOP:  cpu time   94.8826: real time   94.9168

 eigenvalue-minimisations  : 30650
 total energy-change (2. order) :-0.5877383E+01  (-0.5701421E+01)
 number of electron     360.9999958 magnetization 
 augmentation part      104.8683795 magnetization 

 Broyden mixing:
  rms(total) = 0.61813E+01    rms(broyden)= 0.61813E+01
  rms(prec ) = 0.62718E+01
  weight for this iteration     100.00

 Free energy of the ion-electron system (eV)
  ---------------------------------------------------
  alpha Z        PSCENC =       920.05075105
  Ewald energy   TEWEN  =     93265.06768705
  -Hartree energ DENC   =   -121324.45657792
  -exchange      EXHF   =         0.00000000
  -V(xc)+E(xc)   XCENC  =       123.75272775
  PAW double counting   =     25062.58130285   -24044.39352455
  entropy T*S    EENTRO =        -1.96295820
  eigenvalues    EBANDS =      -488.15469177
  atomic energy  EATOM  =     26260.50889777
  Solvation  Ediel_sol  =         0.00000000
  ---------------------------------------------------
  free energy    TOTEN  =      -227.00638597 eV

  energy without entropy =     -225.04342777  energy(sigma->0) =     -226.02490687


--------------------------------------------------------------------------------------------------------




----------------------------------------- Iteration    1(   5)  ---------------------------------------


    POTLOK:  cpu time    0.6789: real time    0.7343
    SETDIJ:  cpu time    0.0750: real time    0.0749
    EDDIAG:  cpu time   10.7844: real time   10.7927
  RMM-DIIS:  cpu time   28.0637: real time   28.1254
    ORTHCH:  cpu time    2.9665: real time    3.0103
       DOS:  cpu time    0.0040: real time    0.0037
    CHARGE:  cpu time    2.3186: real time    2.3171
    MIXING:  cpu time    0.0460: real time    0.0453
    --------------------------------------------
      LOOP:  cpu time   44.9382: real time   45.1718

 eigenvalue-minimisations  : 24947
 total energy-change (2. order) : 0.8728043E+01  (-0.3943858E+01)
 number of electron     360.9999982 magnetization 
 augmentation part      110.7630260 magnetization 

 Broyden mixing:
  rms(total) = 0.42712E+01    rms(broyden)= 0.42712E+01
  rms(prec ) = 0.45081E+01
  weight for this iteration     100.00

 eigenvalues of (default mixing * dielectric matrix)
  average eigenvalue GAMMA=   1.4078
  1.4078

 Free energy of the ion-electron system (eV)
  ---------------------------------------------------
  alpha Z        PSCENC =       920.05075105
  Ewald energy   TEWEN  =     93265.06768705
  -Hartree energ DENC   =   -120918.31987145
  -exchange      EXHF   =         0.00000000
  -V(xc)+E(xc)   XCENC  =       114.27774549
  PAW double counting   =     27631.18603428   -26664.80040248
  entropy T*S    EENTRO =        -2.12943972
  eigenvalues    EBANDS =      -824.11974459
  atomic energy  EATOM  =     26260.50889777
  Solvation  Ediel_sol  =         0.00000000
  ---------------------------------------------------
  free energy    TOTEN  =      -218.27834260 eV

  energy without entropy =     -216.14890289  energy(sigma->0) =     -217.21362275


--------------------------------------------------------------------------------------------------------




----------------------------------------- Iteration    1(   6)  ---------------------------------------


    POTLOK:  cpu time    0.0530: real time    0.0532
    SETDIJ:  cpu time    0.0080: real time    0.0078
    EDDIAG:  cpu time   10.8404: real time   10.8868
  RMM-DIIS:  cpu time   28.3517: real time   28.3357
    ORTHCH:  cpu time    2.9076: real time    2.9411
       DOS:  cpu time    0.0040: real time    0.0036
    CHARGE:  cpu time    2.3416: real time    2.3397
    MIXING:  cpu time    0.0020: real time    0.0021
    --------------------------------------------
      LOOP:  cpu time   44.5102: real time   44.5921

 eigenvalue-minimisations  : 24899
 total energy-change (2. order) :-0.4282076E+02  (-0.7136721E+01)
 number of electron     360.9999914 magnetization 
 augmentation part      109.1449731 magnetization 

 Broyden mixing:
  rms(total) = 0.56983E+01    rms(broyden)= 0.56982E+01
  rms(prec ) = 0.69035E+01
  weight for this iteration     100.00

 eigenvalues of (default mixing * dielectric matrix)
  average eigenvalue GAMMA=   1.2025
  2.1331  0.2719

 Free energy of the ion-electron system (eV)
  ---------------------------------------------------
  alpha Z        PSCENC =       920.05075105
  Ewald energy   TEWEN  =     93265.06768705
  -Hartree energ DENC   =   -121195.77056287
  -exchange      EXHF   =         0.00000000
  -V(xc)+E(xc)   XCENC  =       111.34074481
  PAW double counting   =     29569.75833113   -28626.00444484
  entropy T*S    EENTRO =        -1.19185091
  eigenvalues    EBANDS =      -564.85865415
  atomic energy  EATOM  =     26260.50889777
  Solvation  Ediel_sol  =         0.00000000
  ---------------------------------------------------
  free energy    TOTEN  =      -261.09910095 eV

  energy without entropy =     -259.90725004  energy(sigma->0) =     -260.50317549


--------------------------------------------------------------------------------------------------------




----------------------------------------- Iteration    1(   7)  ---------------------------------------


    POTLOK:  cpu time    0.5059: real time    0.5217
    SETDIJ:  cpu time    0.0150: real time    0.0146
    EDDIAG:  cpu time   10.7934: real time   10.8701
  RMM-DIIS:  cpu time   27.6848: real time   27.7778
    ORTHCH:  cpu time    2.9546: real time    2.9560
       DOS:  cpu time    0.0040: real time    0.0040
    CHARGE:  cpu time    2.2777: real time    2.2761
    MIXING:  cpu time    0.0020: real time    0.0022
    --------------------------------------------
      LOOP:  cpu time   44.2383: real time   44.5395

 eigenvalue-minimisations  : 24405
 total energy-change (2. order) : 0.4588511E+02  (-0.2305324E+01)
 number of electron     360.9999950 magnetization 
 augmentation part      112.7111644 magnetization 

 Broyden mixing:
  rms(total) = 0.13660E+01    rms(broyden)= 0.13660E+01
  rms(prec ) = 0.16580E+01
  weight for this iteration     100.00

 eigenvalues of (default mixing * dielectric matrix)
  average eigenvalue GAMMA=   1.1121
  1.9265  1.1030  0.3066

 Free energy of the ion-electron system (eV)
  ---------------------------------------------------
  alpha Z        PSCENC =       920.05075105
  Ewald energy   TEWEN  =     93265.06768705
  -Hartree energ DENC   =   -120914.79026998
  -exchange      EXHF   =         0.00000000
  -V(xc)+E(xc)   XCENC  =       109.38544229
  PAW double counting   =     31350.04251530   -30430.69808661
  entropy T*S    EENTRO =        -2.05837331
  eigenvalues    EBANDS =      -772.72255286
  atomic energy  EATOM  =     26260.50889777
  Solvation  Ediel_sol  =         0.00000000
  ---------------------------------------------------
  free energy    TOTEN  =      -215.21398929 eV

  energy without entropy =     -213.15561598  energy(sigma->0) =     -214.18480264


--------------------------------------------------------------------------------------------------------




----------------------------------------- Iteration    1(   8)  ---------------------------------------


    POTLOK:  cpu time    0.0560: real time    0.0575
    SETDIJ:  cpu time    0.0080: real time    0.0078
    EDDIAG:  cpu time   10.8733: real time   10.8665
  RMM-DIIS:  cpu time   29.2336: real time   29.4955
    ORTHCH:  cpu time    2.9645: real time    2.9789
       DOS:  cpu time    0.0040: real time    0.0039
    CHARGE:  cpu time    2.3766: real time    2.3748
    MIXING:  cpu time    0.0020: real time    0.0023
    --------------------------------------------
      LOOP:  cpu time   45.5211: real time   45.8098

 eigenvalue-minimisations  : 25102
 total energy-change (2. order) :-0.3455910E+01  (-0.1314562E+01)
 number of electron     360.9999961 magnetization 
 augmentation part      112.0124121 magnetization 

 Broyden mixing:
  rms(total) = 0.23408E+01    rms(broyden)= 0.23407E+01
  rms(prec ) = 0.30943E+01
  weight for this iteration     100.00

 eigenvalues of (default mixing * dielectric matrix)
  average eigenvalue GAMMA=   0.9233
  1.9805  1.2152  0.2891  0.2086

 Free energy of the ion-electron system (eV)
  ---------------------------------------------------
  alpha Z        PSCENC =       920.05075105
  Ewald energy   TEWEN  =     93265.06768705
  -Hartree energ DENC   =   -120918.80550772
  -exchange      EXHF   =         0.00000000
  -V(xc)+E(xc)   XCENC  =       110.97412048
  PAW double counting   =     31399.13693179   -30475.54536114
  entropy T*S    EENTRO =        -1.73641789
  eigenvalues    EBANDS =      -778.32100089
  atomic energy  EATOM  =     26260.50889777
  Solvation  Ediel_sol  =         0.00000000
  ---------------------------------------------------
  free energy    TOTEN  =      -218.66989950 eV

  energy without entropy =     -216.93348161  energy(sigma->0) =     -217.80169055


--------------------------------------------------------------------------------------------------------




----------------------------------------- Iteration    1(   9)  ---------------------------------------


    POTLOK:  cpu time    0.8699: real time    0.8704
    SETDIJ:  cpu time    0.0080: real time    0.0077
    EDDIAG:  cpu time   10.7404: real time   10.9524
  RMM-DIIS:  cpu time   29.3545: real time   29.7343
    ORTHCH:  cpu time    2.9885: real time    2.9980
       DOS:  cpu time    0.0030: real time    0.0037
    CHARGE:  cpu time    2.3156: real time    2.3140
    MIXING:  cpu time    0.0030: real time    0.0025
    --------------------------------------------
      LOOP:  cpu time   46.2850: real time   46.9128

 eigenvalue-minimisations  : 25816
 total energy-change (2. order) : 0.1324099E+01  (-0.2151675E+00)
 number of electron     360.9999962 magnetization 
 augmentation part      112.0650875 magnetization 

 Broyden mixing:
  rms(total) = 0.20752E+01    rms(broyden)= 0.20751E+01
  rms(prec ) = 0.30750E+01
  weight for this iteration     100.00

 eigenvalues of (default mixing * dielectric matrix)
  average eigenvalue GAMMA=   0.7929
  2.0475  1.2511  0.2768  0.2768  0.1125

 Free energy of the ion-electron system (eV)
  ---------------------------------------------------
  alpha Z        PSCENC =       920.05075105
  Ewald energy   TEWEN  =     93265.06768705
  -Hartree energ DENC   =   -120924.09700252
  -exchange      EXHF   =         0.00000000
  -V(xc)+E(xc)   XCENC  =       111.09084307
  PAW double counting   =     31492.61862725   -30569.48574434
  entropy T*S    EENTRO =        -1.96008056
  eigenvalues    EBANDS =      -771.13977882
  atomic energy  EATOM  =     26260.50889777
  Solvation  Ediel_sol  =         0.00000000
  ---------------------------------------------------
  free energy    TOTEN  =      -217.34580004 eV

  energy without entropy =     -215.38571949  energy(sigma->0) =     -216.36575976


--------------------------------------------------------------------------------------------------------




----------------------------------------- Iteration    1(  10)  ---------------------------------------


    POTLOK:  cpu time    0.0580: real time    0.0579
    SETDIJ:  cpu time    0.0080: real time    0.0081
    EDDIAG:  cpu time   11.1953: real time   11.2090
  RMM-DIIS:  cpu time   28.1547: real time   28.4529
    ORTHCH:  cpu time    3.0845: real time    3.0953
       DOS:  cpu time    0.0040: real time    0.0039
    CHARGE:  cpu time    2.3276: real time    2.3264
    MIXING:  cpu time    0.0030: real time    0.0028
    --------------------------------------------
      LOOP:  cpu time   44.8352: real time   45.1782

 eigenvalue-minimisations  : 24967
 total energy-change (2. order) : 0.3360046E+01  (-0.1160914E+00)
 number of electron     360.9999969 magnetization 
 augmentation part      111.9595147 magnetization 

 Broyden mixing:
  rms(total) = 0.96127E+00    rms(broyden)= 0.96122E+00
  rms(prec ) = 0.11911E+01
  weight for this iteration     100.00

 eigenvalues of (default mixing * dielectric matrix)
  average eigenvalue GAMMA=   0.7866
  2.2243  1.1710  0.5069  0.4288  0.3007  0.0879

 Free energy of the ion-electron system (eV)
  ---------------------------------------------------
  alpha Z        PSCENC =       920.05075105
  Ewald energy   TEWEN  =     93265.06768705
  -Hartree energ DENC   =   -120928.86972568
  -exchange      EXHF   =         0.00000000
  -V(xc)+E(xc)   XCENC  =       111.07163573
  PAW double counting   =     31586.43594704   -30664.17125667
  entropy T*S    EENTRO =        -2.14059845
  eigenvalues    EBANDS =      -761.93909157
  atomic energy  EATOM  =     26260.50889777
  Solvation  Ediel_sol  =         0.00000000
  ---------------------------------------------------
  free energy    TOTEN  =      -213.98575374 eV

  energy without entropy =     -211.84515528  energy(sigma->0) =     -212.91545451


--------------------------------------------------------------------------------------------------------




----------------------------------------- Iteration    1(  11)  ---------------------------------------


    POTLOK:  cpu time    0.0770: real time    0.0777
    SETDIJ:  cpu time    0.0080: real time    0.0079
    EDDIAG:  cpu time   10.8803: real time   10.8727
  RMM-DIIS:  cpu time   29.1896: real time   29.1909
    ORTHCH:  cpu time    3.1425: real time    3.1400
       DOS:  cpu time    0.0040: real time    0.0040
    CHARGE:  cpu time    2.3596: real time    2.3583
    MIXING:  cpu time    0.0030: real time    0.0027
    --------------------------------------------
      LOOP:  cpu time   45.6651: real time   45.7101

 eigenvalue-minimisations  : 24883
 total energy-change (2. order) : 0.6344536E+00  (-0.6082950E-01)
 number of electron     360.9999963 magnetization 
 augmentation part      111.9636094 magnetization 

 Broyden mixing:
  rms(total) = 0.35674E+00    rms(broyden)= 0.35669E+00
  rms(prec ) = 0.40608E+00
  weight for this iteration     100.00

 eigenvalues of (default mixing * dielectric matrix)
  average eigenvalue GAMMA=   0.7479
  2.2829  0.9763  0.9763  0.3219  0.2949  0.2949  0.0881

 Free energy of the ion-electron system (eV)
  ---------------------------------------------------
  alpha Z        PSCENC =       920.05075105
  Ewald energy   TEWEN  =     93265.06768705
  -Hartree energ DENC   =   -120939.35956399
  -exchange      EXHF   =         0.00000000
  -V(xc)+E(xc)   XCENC  =       110.87177503
  PAW double counting   =     31699.52085942   -30778.91520331
  entropy T*S    EENTRO =        -2.14983903
  eigenvalues    EBANDS =      -748.94666411
  atomic energy  EATOM  =     26260.50889777
  Solvation  Ediel_sol  =         0.00000000
  ---------------------------------------------------
  free energy    TOTEN  =      -213.35130012 eV

  energy without entropy =     -211.20146109  energy(sigma->0) =     -212.27638061


--------------------------------------------------------------------------------------------------------




----------------------------------------- Iteration    1(  12)  ---------------------------------------


    POTLOK:  cpu time    0.0570: real time    0.0574
    SETDIJ:  cpu time    0.0080: real time    0.0080
    EDDIAG:  cpu time   10.9993: real time   11.0018
  RMM-DIIS:  cpu time   29.4845: real time   29.5875
    ORTHCH:  cpu time    3.0245: real time    3.0229
       DOS:  cpu time    0.0040: real time    0.0039
    CHARGE:  cpu time    2.2627: real time    2.2605
    MIXING:  cpu time    0.0030: real time    0.0028
    --------------------------------------------
      LOOP:  cpu time   45.8440: real time   45.9674

 eigenvalue-minimisations  : 25902
 total energy-change (2. order) : 0.7489072E-01  (-0.1510119E-01)
 number of electron     360.9999961 magnetization 
 augmentation part      111.9803230 magnetization 

 Broyden mixing:
  rms(total) = 0.17707E+00    rms(broyden)= 0.17705E+00
  rms(prec ) = 0.19658E+00
  weight for this iteration     100.00

 eigenvalues of (default mixing * dielectric matrix)
  average eigenvalue GAMMA=   0.7433
  2.2575  1.1097  1.1097  0.3960  0.3960  0.3199  0.2693  0.0883

 Free energy of the ion-electron system (eV)
  ---------------------------------------------------
  alpha Z        PSCENC =       920.05075105
  Ewald energy   TEWEN  =     93265.06768705
  -Hartree energ DENC   =   -120943.33922920
  -exchange      EXHF   =         0.00000000
  -V(xc)+E(xc)   XCENC  =       110.81362546
  PAW double counting   =     31725.96242084   -30805.82960042
  entropy T*S    EENTRO =        -2.14426971
  eigenvalues    EBANDS =      -744.36669224
  atomic energy  EATOM  =     26260.50889777
  Solvation  Ediel_sol  =         0.00000000
  ---------------------------------------------------
  free energy    TOTEN  =      -213.27640941 eV

  energy without entropy =     -211.13213969  energy(sigma->0) =     -212.20427455


--------------------------------------------------------------------------------------------------------




----------------------------------------- Iteration    1(  13)  ---------------------------------------


    POTLOK:  cpu time    1.1898: real time    1.1890
    SETDIJ:  cpu time    0.0080: real time    0.0080
    EDDIAG:  cpu time   10.7044: real time   10.8507
  RMM-DIIS:  cpu time   29.8175: real time   29.8981
    ORTHCH:  cpu time    2.9286: real time    3.0165
       DOS:  cpu time    0.0050: real time    0.0038
    CHARGE:  cpu time    2.2277: real time    2.2773
    MIXING:  cpu time    0.0030: real time    0.0029
    --------------------------------------------
      LOOP:  cpu time   46.8859: real time   47.2796

 eigenvalue-minimisations  : 25995
 total energy-change (2. order) : 0.7606509E-02  (-0.2083253E-02)
 number of electron     360.9999961 magnetization 
 augmentation part      111.9788927 magnetization 

 Broyden mixing:
  rms(total) = 0.14312E+00    rms(broyden)= 0.14312E+00
  rms(prec ) = 0.15914E+00
  weight for this iteration     100.00

 eigenvalues of (default mixing * dielectric matrix)
  average eigenvalue GAMMA=   0.7909
  2.1382  1.5207  1.5207  0.4827  0.4827  0.0883  0.3225  0.3107  0.2519

 Free energy of the ion-electron system (eV)
  ---------------------------------------------------
  alpha Z        PSCENC =       920.05075105
  Ewald energy   TEWEN  =     93265.06768705
  -Hartree energ DENC   =   -120945.07230451
  -exchange      EXHF   =         0.00000000
  -V(xc)+E(xc)   XCENC  =       110.85637474
  PAW double counting   =     31707.20206802   -30786.84863913
  entropy T*S    EENTRO =        -2.14807562
  eigenvalues    EBANDS =      -742.88556225
  atomic energy  EATOM  =     26260.50889777
  Solvation  Ediel_sol  =         0.00000000
  ---------------------------------------------------
  free energy    TOTEN  =      -213.26880290 eV

  energy without entropy =     -211.12072727  energy(sigma->0) =     -212.19476508


--------------------------------------------------------------------------------------------------------




----------------------------------------- Iteration    1(  14)  ---------------------------------------


    POTLOK:  cpu time    0.1370: real time    0.1743
    SETDIJ:  cpu time    0.0080: real time    0.0080
    EDDIAG:  cpu time   12.5321: real time   12.6044
  RMM-DIIS:  cpu time   27.6518: real time   27.8521
    ORTHCH:  cpu time    2.9905: real time    3.0142
       DOS:  cpu time    0.0040: real time    0.0039
    CHARGE:  cpu time    2.3236: real time    2.3225
    MIXING:  cpu time    0.0040: real time    0.0032
    --------------------------------------------
      LOOP:  cpu time   45.6521: real time   46.0055

 eigenvalue-minimisations  : 24676
 total energy-change (2. order) : 0.8312971E-02  (-0.1470808E-02)
 number of electron     360.9999961 magnetization 
 augmentation part      111.9604175 magnetization 

 Broyden mixing:
  rms(total) = 0.82204E-01    rms(broyden)= 0.82201E-01
  rms(prec ) = 0.92075E-01
  weight for this iteration     100.00

 eigenvalues of (default mixing * dielectric matrix)
  average eigenvalue GAMMA=   0.8376
  2.2148  2.2148  1.2682  0.7771  0.5700  0.4025  0.0883  0.3127  0.2897  0.2377

 Free energy of the ion-electron system (eV)
  ---------------------------------------------------
  alpha Z        PSCENC =       920.05075105
  Ewald energy   TEWEN  =     93265.06768705
  -Hartree energ DENC   =   -120949.60454287
  -exchange      EXHF   =         0.00000000
  -V(xc)+E(xc)   XCENC  =       110.92770080
  PAW double counting   =     31681.44802034   -30760.75102034
  entropy T*S    EENTRO =        -2.15286712
  eigenvalues    EBANDS =      -738.75511660
  atomic energy  EATOM  =     26260.50889777
  Solvation  Ediel_sol  =         0.00000000
  ---------------------------------------------------
  free energy    TOTEN  =      -213.26048993 eV

  energy without entropy =     -211.10762281  energy(sigma->0) =     -212.18405637


--------------------------------------------------------------------------------------------------------




----------------------------------------- Iteration    1(  15)  ---------------------------------------


    POTLOK:  cpu time    0.5659: real time    0.7367
    SETDIJ:  cpu time    0.0710: real time    0.0703
    EDDIAG:  cpu time   10.9173: real time   10.9094
  RMM-DIIS:  cpu time   28.1437: real time   28.4294
    ORTHCH:  cpu time    2.9715: real time    3.0713
       DOS:  cpu time    0.0040: real time    0.0040
    CHARGE:  cpu time    2.2827: real time    2.2910
    MIXING:  cpu time    0.0690: real time    0.0686
    --------------------------------------------
      LOOP:  cpu time   45.0262: real time   45.6771

 eigenvalue-minimisations  : 24655
 total energy-change (2. order) : 0.3108483E-02  (-0.1128645E-02)
 number of electron     360.9999961 magnetization 
 augmentation part      111.9342257 magnetization 

 Broyden mixing:
  rms(total) = 0.45879E-01    rms(broyden)= 0.45874E-01
  rms(prec ) = 0.53563E-01
  weight for this iteration     100.00

 eigenvalues of (default mixing * dielectric matrix)
  average eigenvalue GAMMA=   0.8455
  2.4349  2.4349  1.2464  0.8475  0.6453  0.0883  0.3887  0.3887  0.3007  0.2908
  0.2347

 Free energy of the ion-electron system (eV)
  ---------------------------------------------------
  alpha Z        PSCENC =       920.05075105
  Ewald energy   TEWEN  =     93265.06768705
  -Hartree energ DENC   =   -120954.01494454
  -exchange      EXHF   =         0.00000000
  -V(xc)+E(xc)   XCENC  =       110.99180162
  PAW double counting   =     31666.39084125   -30745.40330550
  entropy T*S    EENTRO =        -2.15397701
  eigenvalues    EBANDS =      -734.69513315
  atomic energy  EATOM  =     26260.50889777
  Solvation  Ediel_sol  =         0.00000000
  ---------------------------------------------------
  free energy    TOTEN  =      -213.25738144 eV

  energy without entropy =     -211.10340444  energy(sigma->0) =     -212.18039294


--------------------------------------------------------------------------------------------------------




----------------------------------------- Iteration    1(  16)  ---------------------------------------


    POTLOK:  cpu time    0.0570: real time    0.0579
    SETDIJ:  cpu time    0.0080: real time    0.0081
    EDDIAG:  cpu time   10.9593: real time   10.9796
  RMM-DIIS:  cpu time   29.9404: real time   30.0117
    ORTHCH:  cpu time    2.9795: real time    2.9777
       DOS:  cpu time    0.0040: real time    0.0040
    CHARGE:  cpu time    2.2347: real time    2.2329
    MIXING:  cpu time    0.0030: real time    0.0035
    --------------------------------------------
      LOOP:  cpu time   46.1870: real time   46.2977

 eigenvalue-minimisations  : 25082
 total energy-change (2. order) : 0.2096724E-02  (-0.3451741E-03)
 number of electron     360.9999961 magnetization 
 augmentation part      111.9240973 magnetization 

 Broyden mixing:
  rms(total) = 0.22435E-01    rms(broyden)= 0.22433E-01
  rms(prec ) = 0.27444E-01
  weight for this iteration     100.00

 eigenvalues of (default mixing * dielectric matrix)
  average eigenvalue GAMMA=   0.8174
  2.4195  2.4195  1.2797  0.7966  0.7966  0.4307  0.4307  0.0883  0.3190  0.3190
  0.2763  0.2336

 Free energy of the ion-electron system (eV)
  ---------------------------------------------------
  alpha Z        PSCENC =       920.05075105
  Ewald energy   TEWEN  =     93265.06768705
  -Hartree energ DENC   =   -120957.16713979
  -exchange      EXHF   =         0.00000000
  -V(xc)+E(xc)   XCENC  =       111.01284186
  PAW double counting   =     31664.44312498   -30743.39518102
  entropy T*S    EENTRO =        -2.15320841
  eigenvalues    EBANDS =      -731.62305821
  atomic energy  EATOM  =     26260.50889777
  Solvation  Ediel_sol  =         0.00000000
  ---------------------------------------------------
  free energy    TOTEN  =      -213.25528472 eV

  energy without entropy =     -211.10207631  energy(sigma->0) =     -212.17868051


--------------------------------------------------------------------------------------------------------




----------------------------------------- Iteration    1(  17)  ---------------------------------------


    POTLOK:  cpu time    1.5908: real time    1.5918
    SETDIJ:  cpu time    0.1370: real time    0.1369
    EDDIAG:  cpu time   10.9643: real time   11.0806
  RMM-DIIS:  cpu time   30.4224: real time   30.4885
    ORTHCH:  cpu time    3.0445: real time    3.0764
       DOS:  cpu time    0.0040: real time    0.0040
    CHARGE:  cpu time    2.3166: real time    2.3152
    MIXING:  cpu time    0.0040: real time    0.0037
    --------------------------------------------
      LOOP:  cpu time   48.4866: real time   48.7407

 eigenvalue-minimisations  : 25665
 total energy-change (2. order) : 0.1882335E-03  (-0.4829648E-04)
 number of electron     360.9999961 magnetization 
 augmentation part      111.9241083 magnetization 

 Broyden mixing:
  rms(total) = 0.17606E-01    rms(broyden)= 0.17605E-01
  rms(prec ) = 0.21897E-01
  weight for this iteration     100.00

 eigenvalues of (default mixing * dielectric matrix)
  average eigenvalue GAMMA=   0.8380
  2.4041  2.4041  1.4607  1.0657  1.0657  0.4817  0.4817  0.0883  0.3406  0.3281
  0.2834  0.2334  0.2568

 Free energy of the ion-electron system (eV)
  ---------------------------------------------------
  alpha Z        PSCENC =       920.05075105
  Ewald energy   TEWEN  =     93265.06768705
  -Hartree energ DENC   =   -120957.92518798
  -exchange      EXHF   =         0.00000000
  -V(xc)+E(xc)   XCENC  =       111.01569784
  PAW double counting   =     31665.53291880   -30744.48722641
  entropy T*S    EENTRO =        -2.15335267
  eigenvalues    EBANDS =      -730.86528194
  atomic energy  EATOM  =     26260.50889777
  Solvation  Ediel_sol  =         0.00000000
  ---------------------------------------------------
  free energy    TOTEN  =      -213.25509648 eV

  energy without entropy =     -211.10174381  energy(sigma->0) =     -212.17842015


--------------------------------------------------------------------------------------------------------




----------------------------------------- Iteration    1(  18)  ---------------------------------------


    POTLOK:  cpu time    0.0580: real time    0.0585
    SETDIJ:  cpu time    0.0080: real time    0.0080
    EDDIAG:  cpu time   11.0273: real time   11.0709
  RMM-DIIS:  cpu time   28.8116: real time   28.8264
    ORTHCH:  cpu time    3.0315: real time    3.0519
       DOS:  cpu time    0.0030: real time    0.0039
    CHARGE:  cpu time    2.3066: real time    2.3050
    MIXING:  cpu time    0.0040: real time    0.0038
    --------------------------------------------
      LOOP:  cpu time   45.2521: real time   45.3511

 eigenvalue-minimisations  : 25061
 total energy-change (2. order) : 0.2201199E-03  (-0.2033911E-04)
 number of electron     360.9999961 magnetization 
 augmentation part      111.9256091 magnetization 

 Broyden mixing:
  rms(total) = 0.96093E-02    rms(broyden)= 0.96088E-02
  rms(prec ) = 0.11076E-01
  weight for this iteration     100.00

 eigenvalues of (default mixing * dielectric matrix)
  average eigenvalue GAMMA=   0.8271
  2.3869  2.3869  1.6322  1.1364  1.1364  0.5097  0.5097  0.0883  0.3658  0.3658
  0.3039  0.2867  0.2319  0.2382

 Free energy of the ion-electron system (eV)
  ---------------------------------------------------
  alpha Z        PSCENC =       920.05075105
  Ewald energy   TEWEN  =     93265.06768705
  -Hartree energ DENC   =   -120959.27771244
  -exchange      EXHF   =         0.00000000
  -V(xc)+E(xc)   XCENC  =       111.02200042
  PAW double counting   =     31666.80582332   -30745.75853406
  entropy T*S    EENTRO =        -2.15322778
  eigenvalues    EBANDS =      -729.52056169
  atomic energy  EATOM  =     26260.50889777
  Solvation  Ediel_sol  =         0.00000000
  ---------------------------------------------------
  free energy    TOTEN  =      -213.25487636 eV

  energy without entropy =     -211.10164859  energy(sigma->0) =     -212.17826248


--------------------------------------------------------------------------------------------------------




----------------------------------------- Iteration    1(  19)  ---------------------------------------


    POTLOK:  cpu time    0.7619: real time    0.8081
    SETDIJ:  cpu time    0.0080: real time    0.0081
    EDDIAG:  cpu time   17.9343: real time   17.9411
  RMM-DIIS:  cpu time   28.3217: real time   28.7984
    ORTHCH:  cpu time    3.0135: real time    3.0559
       DOS:  cpu time    0.0040: real time    0.0038
    CHARGE:  cpu time    2.3386: real time    2.3567
    MIXING:  cpu time    0.0040: real time    0.0039
    --------------------------------------------
      LOOP:  cpu time   52.3880: real time   53.0786

 eigenvalue-minimisations  : 25169
[...]
    135      -0.3555      2.00000
    136      -0.3319      2.00000
    137      -0.3153      2.00000
    138      -0.3034      2.00000
    139      -0.2559      2.00000
    140      -0.2302      2.00000
    141      -0.2140      2.00000
    142      -0.2072      2.00000
    143      -0.1987      2.00000
    144      -0.1742      2.00000
    145      -0.0475      1.99998
    146      -0.0279      1.99998
    147      -0.0174      1.99998
    148      -0.0017      1.99997
    149       0.0043      1.99997
    150       0.0469      1.99995
    151       0.0637      1.99995
    152       0.0901      1.99993
    153       0.1128      1.99991
    154       0.2688      1.99958
    155       0.2872      1.99950
    156       0.3674      1.99888
    157       0.4392      1.99771
    158       0.4715      1.99684
    159       0.4794      1.99658
    160       0.4903      1.99619
    161       0.5671      1.99181
    162       0.5796      1.99072
    163       0.6095      1.98750
    164       0.6381      1.98340
    165       0.7684      1.94027
    166       0.7771      1.93499
    167       0.8207      1.90125
    168       0.8509      1.86873
    169       0.8696      1.84387
    170       0.8888      1.81383
    171       0.9153      1.76405
    172       0.9231      1.74736
    173       0.9488      1.68502
    174       1.0344      1.38879
    175       1.0508      1.31697
    176       1.0804      1.17833
    177       1.0844      1.15898
    178       1.1037      1.06382
    179       1.1168      0.99807
    180       1.1398      0.88366
    181       1.1456      0.85546
    182       1.2575      0.39232
    183       1.3507      0.17534
    184       1.3658      0.15260
    185       1.3742      0.14126
    186       1.3835      0.12950
    187       1.3859      0.12665
    188       1.3998      0.11111
    189       1.4295      0.08371
    190       1.4668      0.05845
    191       1.5113      0.03783
    192       2.3614      0.00001
    193       2.5651      0.00000
    194       2.5926      0.00000
    195       2.5970      0.00000
    196       2.6303      0.00000
    197       2.6528      0.00000
    198       2.9069      0.00000
    199       2.9599      0.00000
    200       3.3027      0.00000
    201       3.3916      0.00000
    202       3.4047      0.00000
    203       3.6171      0.00000
    204       3.8814      0.00000
    205       3.9501      0.00000
    206       4.0071      0.00000
    207       4.0346      0.00000
    208       4.0717      0.00000
    209       4.2402      0.00000
    210       4.3763      0.00000
    211       4.4425      0.00000
    212       4.6155      0.00000
    213       4.7876      0.00000
    214       4.8587      0.00000
    215       5.6181      0.00000
    216       5.7260      0.00000
    217       5.7487      0.00000
    218       5.9492      0.00000
    219       5.9937      0.00000
    220       7.1625      0.00000


--------------------------------------------------------------------------------------------------------


 soft charge-density along one line, spin component           1
         0         1         2         3         4         5         6         7         8         9
 total charge-density along one line
 
 pseudopotential strength for first ion, spin component:           1
 -6.157   0.000   0.000  -0.011  -0.000  -6.269   0.000   0.000
  0.000  -6.055   0.000   0.000  -0.012   0.000  -6.170   0.000
  0.000   0.000  -6.051   0.000   0.000   0.000   0.000  -6.166
 -0.011   0.000   0.000  -6.055   0.000  -0.011   0.000   0.000
 -0.000  -0.012   0.000   0.000  -6.157  -0.000  -0.011   0.000
 -6.269   0.000   0.000  -0.011  -0.000  -6.365   0.000   0.000
  0.000  -6.170   0.000   0.000  -0.011   0.000  -6.269   0.000
  0.000   0.000  -6.166   0.000   0.000   0.000   0.000  -6.265
 -0.011   0.000   0.000  -6.170   0.000  -0.011   0.000   0.000
 -0.000  -0.011   0.000   0.000  -6.269  -0.000  -0.011   0.000
 -0.000  -0.000  -0.032  -0.000  -0.000  -0.000  -0.000  -0.031
 -0.000  -0.000  -0.047  -0.000  -0.000  -0.000  -0.000  -0.046
  0.000  -0.004  -0.000   0.000   0.000   0.000  -0.003  -0.000
  0.000   0.000  -0.008   0.000   0.000   0.000   0.000  -0.008
  0.001   0.000  -0.000  -0.004   0.000   0.001   0.000  -0.000
  0.000  -0.002  -0.000   0.000   0.001   0.000  -0.002  -0.000
  0.000   0.000  -0.008   0.000   0.000   0.000   0.000  -0.008
  0.001   0.000  -0.000  -0.002   0.000   0.001   0.000  -0.000
 total augmentation occupancy for first ion, spin component:           1
  3.159   0.004   0.002  -0.215  -0.003  -2.024  -0.003  -0.001   0.040   0.002   0.000   0.000  -0.000  -0.000  -0.049   0.000
  0.004   3.858   0.001   0.002  -0.220  -0.003  -2.054  -0.001  -0.002   0.050   0.001  -0.000  -0.251  -0.000   0.000   0.012
  0.002   0.001   4.122   0.002   0.001  -0.001  -0.001  -2.534  -0.001  -0.001   0.762  -0.116  -0.000  -0.302  -0.000  -0.000
 -0.215   0.002   0.002   3.861   0.004   0.047  -0.002  -0.001  -2.056  -0.003   0.002  -0.001   0.000  -0.000  -0.251   0.000
 -0.003  -0.220   0.001   0.004   3.162   0.002   0.043  -0.001  -0.003  -2.026   0.000   0.000  -0.049  -0.000  -0.000   0.003
 -2.024  -0.003  -0.001   0.047   0.002   2.533   0.002   0.001   0.079  -0.001  -0.000  -0.000  -0.000   0.000   0.049   0.000
 -0.003  -2.054  -0.001  -0.002   0.043   0.002   2.074   0.001   0.001   0.076  -0.000   0.000   0.242  -0.000  -0.000  -0.016
 -0.001  -0.001  -2.534  -0.001  -0.001   0.001   0.001   2.709   0.001   0.000  -0.660   0.082   0.000   0.361   0.000  -0.000
  0.040  -0.002  -0.001  -2.056  -0.003   0.079   0.001   0.001   2.075   0.002  -0.001   0.000  -0.000  -0.000   0.242   0.000
  0.002   0.050  -0.001  -0.003  -2.026  -0.001   0.076   0.000   0.002   2.534  -0.000  -0.000   0.049   0.000  -0.000  -0.003
  0.000   0.001   0.762   0.002   0.000  -0.000  -0.000  -0.660  -0.001  -0.000   2.235  -0.443  -0.000   0.187  -0.000   0.000
  0.000  -0.000  -0.116  -0.001   0.000  -0.000   0.000   0.082   0.000  -0.000  -0.443   0.109  -0.000  -0.065  -0.000  -0.000
 -0.000  -0.251  -0.000   0.000  -0.049  -0.000   0.242   0.000  -0.000   0.049  -0.000  -0.000   0.260   0.000  -0.000  -0.014
 -0.000  -0.000  -0.302  -0.000  -0.000   0.000  -0.000   0.361  -0.000   0.000   0.187  -0.065   0.000   0.146   0.000  -0.000
 -0.049   0.000  -0.000  -0.251  -0.000   0.049  -0.000   0.000   0.242  -0.000  -0.000  -0.000  -0.000   0.000   0.260   0.000
  0.000   0.012  -0.000   0.000   0.003   0.000  -0.016  -0.000   0.000  -0.003   0.000  -0.000  -0.014  -0.000   0.000   0.001
 -0.000   0.000   0.003   0.000  -0.000   0.000  -0.000  -0.019  -0.000   0.000  -0.018   0.005  -0.000  -0.009  -0.000  -0.000
  0.003   0.000  -0.000   0.012   0.000  -0.003   0.000  -0.000  -0.016   0.000   0.000  -0.000   0.000  -0.000  -0.014  -0.000


------------------------ aborting loop because EDIFF is reached ----------------------------------------


    CHARGE:  cpu time    2.3416: real time    2.3395
    FORLOC:  cpu time    0.0150: real time    0.0151
    FORNL :  cpu time   11.1363: real time   11.1676
    STRESS:  cpu time   32.5820: real time   32.9565
    FORCOR:  cpu time    0.0680: real time    0.0679
    FORHAR:  cpu time    0.0270: real time    0.0274
    MIXING:  cpu time    0.0080: real time    0.0079
    OFIELD:  cpu time    0.0000: real time    0.0000

  FORCE on cell =-STRESS in cart. coord.  units (eV):
  Direction    XX          YY          ZZ          XY          YZ          ZX
  --------------------------------------------------------------------------------------
  Alpha Z   920.05075   920.05075   920.05075
  Ewald  113119.66390113120.87812************     0.03627    -0.40156     0.02150
  Hartree119360.65037119360.99756************     0.00816    -0.08960     0.00414
  E(xc)   -1594.31311 -1594.30975 -1604.81314     0.00081    -0.00102    -0.00005
  Local  ************************244012.93188    -0.02994     0.40665    -0.02202
  n-local   153.44568   153.49886   132.31169     0.00152    -0.06512     0.00222
  augment  1879.21343  1879.15312  1932.55361    -0.00451     0.03454    -0.00139
  Kinetic  5192.74543  5192.57290  5337.74029    -0.00799     0.06936    -0.00379
  Fock        0.00000     0.00000     0.00000     0.00000     0.00000     0.00000
  -------------------------------------------------------------------------------------
  Total     -35.46441   -35.44947    -0.20435     0.00431    -0.04675     0.00061
  in kB     -42.28696   -42.26914    -0.24366     0.00514    -0.05574     0.00072
  external pressure =      -28.27 kB  Pullay stress =        0.00 kB


 VOLUME and BASIS-vectors are now :
 -----------------------------------------------------------------------------
  energy-cutoff  :      400.00
  volume of cell :     1343.68
      direct lattice vectors                 reciprocal lattice vectors
     8.421641764  0.000000000  0.000000000     0.118741693 -0.068555548  0.000000000
     4.210820882  7.293355709  0.000000000     0.000000000  0.137111097  0.000000000
     0.000000000  0.000000000 21.876241706     0.000000000  0.000000000  0.045711691

  length of vectors
     8.421641764  8.421641764 21.876241706     0.137111097  0.137111097  0.045711691


 FORCES acting on ions
    electron-ion (+dipol)            ewald-force                    non-local-force                 convergence-correction
 -----------------------------------------------------------------------------------------------
   -.187E+00 -.116E+00 0.231E+04   0.175E+00 0.109E+00 -.231E+04   0.660E-02 0.378E-02 -.122E+01   -.638E-04 -.393E-04 -.580E-03
   0.187E+00 -.115E+00 0.231E+04   -.175E+00 0.109E+00 -.231E+04   -.656E-02 0.374E-02 -.122E+01   0.144E-03 -.255E-04 -.528E-03
   0.275E-03 0.650E-01 0.231E+04   -.119E-03 -.394E-01 -.231E+04   -.406E-04 -.166E-01 -.120E+01   -.797E-04 -.252E-04 -.537E-03
   -.105E-03 0.215E+00 0.231E+04   0.758E-04 -.202E+00 -.231E+04   -.121E-04 -.739E-02 -.122E+01   0.519E-04 0.685E-04 -.557E-03
   0.208E+00 0.118E+00 0.231E+04   -.213E+00 -.120E+00 -.231E+04   0.194E-02 0.128E-02 -.123E+01   0.458E-04 -.416E-04 -.512E-03
   -.208E+00 0.117E+00 0.231E+04   0.213E+00 -.120E+00 -.231E+04   -.198E-02 0.127E-02 -.123E+01   -.978E-04 0.204E-04 -.543E-03
   0.616E-01 -.270E-01 0.231E+04   -.391E-01 0.142E-01 -.231E+04   -.145E-01 0.837E-02 -.120E+01   -.600E-04 0.125E-04 -.545E-03
   -.537E-03 -.230E+00 0.231E+04   0.519E-03 0.235E+00 -.231E+04   0.558E-05 -.227E-02 -.123E+01   0.278E-04 -.583E-04 -.521E-03
   -.611E-01 -.274E-01 0.231E+04   0.385E-01 0.144E-01 -.231E+04   0.146E-01 0.845E-02 -.120E+01   0.323E-04 0.886E-04 -.526E-03
   -.748E-02 -.763E-01 0.778E+03   0.739E-02 0.767E-01 -.778E+03   0.197E-03 0.159E-03 -.304E+00   0.105E-03 -.344E-04 0.663E-04
   0.191E+01 -.767E-01 0.780E+03   -.189E+01 0.418E-01 -.780E+03   -.417E-01 0.221E-01 -.320E+00   0.211E-04 -.162E-04 -.598E-04
   -.191E+01 -.758E-01 0.780E+03   0.189E+01 0.408E-01 -.780E+03   0.416E-01 0.220E-01 -.320E+00   -.126E-03 -.129E-04 -.501E-04
   0.939E+00 0.167E+01 0.780E+03   -.957E+00 -.163E+01 -.780E+03   -.306E-02 -.453E-01 -.319E+00   0.734E-04 0.114E-04 -.297E-05
   0.881E-03 0.650E-02 0.782E+03   -.767E-03 -.706E-02 -.782E+03   -.245E-03 0.512E-03 -.389E+00   -.507E-04 0.719E-05 -.201E-04
   -.933E+00 0.166E+01 0.780E+03   0.951E+00 -.163E+01 -.780E+03   0.282E-02 -.453E-01 -.319E+00   -.225E-04 0.105E-03 -.296E-04
   -.909E+00 -.158E+01 0.780E+03   0.867E+00 0.157E+01 -.780E+03   0.372E-01 0.243E-01 -.321E+00   0.141E-04 -.884E-04 0.498E-04
   0.905E+00 -.157E+01 0.780E+03   -.863E+00 0.157E+01 -.780E+03   -.372E-01 0.243E-01 -.321E+00   0.424E-04 0.170E-05 0.132E-04
   0.215E-02 0.122E-01 0.780E+03   -.223E-02 -.128E-01 -.779E+03   0.424E-04 0.175E-02 -.344E+00   -.564E-04 0.268E-04 -.941E-04
   -.279E+01 0.158E+01 -.775E+03   0.284E+01 -.161E+01 0.775E+03   -.571E-01 0.328E-01 0.439E+00   0.328E-04 -.139E-04 0.115E-02
   0.283E+01 0.158E+01 -.775E+03   -.288E+01 -.161E+01 0.775E+03   0.557E-01 0.328E-01 0.437E+00   0.489E-04 0.562E-06 0.112E-02
   -.319E-01 0.114E+01 -.759E+03   0.320E-01 -.116E+01 0.759E+03   0.585E-03 0.234E-01 0.453E+00   -.818E-04 0.110E-03 0.114E-02
   0.117E-01 0.415E+00 -.763E+03   -.119E-01 -.537E+00 0.763E+03   0.228E-03 0.116E+00 0.320E+00   0.549E-04 -.425E-04 0.989E-03
   0.108E+01 -.574E+00 -.759E+03   -.110E+01 0.585E+00 0.759E+03   0.204E-01 -.923E-02 0.448E+00   0.113E-03 -.164E-04 0.117E-02
   -.111E+01 -.594E+00 -.759E+03   0.113E+01 0.605E+00 0.759E+03   -.196E-01 -.828E-02 0.449E+00   -.167E-03 0.462E-04 0.114E-02
   -.306E+00 -.170E+00 -.763E+03   0.412E+00 0.232E+00 0.763E+03   -.102E+00 -.608E-01 0.321E+00   0.702E-04 -.356E-04 0.102E-02
   -.221E-01 -.336E+01 -.775E+03   0.218E-01 0.341E+01 0.774E+03   0.654E-03 -.580E-01 0.445E+00   0.283E-04 -.946E-04 0.114E-02
   0.327E+00 -.111E+00 -.763E+03   -.433E+00 0.173E+00 0.763E+03   0.101E+00 -.623E-01 0.322E+00   -.986E-04 0.441E-04 0.943E-03
   0.752E+01 0.426E+01 -.229E+04   -.824E+01 -.468E+01 0.229E+04   0.724E+00 0.425E+00 0.594E+00   0.122E-03 0.371E-05 0.700E-03
   -.746E+01 0.424E+01 -.229E+04   0.819E+01 -.467E+01 0.229E+04   -.730E+00 0.427E+00 0.599E+00   -.125E-03 0.615E-04 0.667E-03
   -.461E-02 -.227E+00 -.229E+04   0.475E-02 0.262E+00 0.229E+04   -.728E-03 -.350E-01 0.110E+01   0.225E-05 0.220E-03 0.725E-03
   -.586E-02 -.883E+01 -.229E+04   0.597E-02 0.965E+01 0.229E+04   -.203E-03 -.829E+00 0.565E+00   0.482E-04 -.115E-03 0.722E-03
   0.432E+01 0.243E+01 -.229E+04   -.409E+01 -.230E+01 0.229E+04   -.236E+00 -.132E+00 0.119E+01   0.110E-03 0.116E-03 0.705E-03
   -.432E+01 0.244E+01 -.229E+04   0.409E+01 -.231E+01 0.229E+04   0.236E+00 -.132E+00 0.119E+01   -.160E-03 0.860E-04 0.749E-03
   -.952E-01 0.234E+00 -.229E+04   0.126E+00 -.247E+00 0.229E+04   -.348E-01 0.897E-02 0.109E+01   0.244E-03 -.131E-03 0.691E-03
   -.553E-02 -.482E+01 -.229E+04   0.575E-02 0.457E+01 0.229E+04   -.504E-04 0.264E+00 0.119E+01   -.509E-04 -.136E-03 0.668E-03
   0.980E-01 0.225E+00 -.229E+04   -.129E+00 -.239E+00 0.229E+04   0.350E-01 0.964E-02 0.109E+01   -.193E-03 -.104E-03 0.699E-03
   -.229E-01 0.111E+00 -.285E+03   0.261E-01 -.131E+00 0.286E+03   -.219E-02 0.129E-01 -.135E+01   -.225E-06 0.593E-05 0.115E-04
 -----------------------------------------------------------------------------------------------
   0.769E-02 -.459E-01 0.292E+01   -.904E-13 -.111E-12 -.858E-11   -.867E-02 0.305E-01 -.303E+01   -.290E-05 0.607E-05 0.112E-01
 
 
 POSITION                                       TOTAL-FORCE (eV/Angst)
 -----------------------------------------------------------------------------------
      0.00000      0.00000      7.50000        -0.005185     -0.002490     -0.045985
      2.80721      0.00000      7.50000         0.005192     -0.002475     -0.045929
      5.61443      0.00000      7.50000         0.000062      0.009396     -0.046958
      1.40361      2.43112      7.50000         0.000037      0.006213     -0.045615
      4.21082      2.43112      7.50000        -0.002445     -0.001275     -0.052249
      7.01803      2.43112      7.50000         0.002559     -0.001279     -0.052305
      2.80721      4.86224      7.50000         0.007981     -0.003972     -0.046497
      5.61443      4.86224      7.50000         0.000042      0.003195     -0.052353
      8.42164      4.86224      7.50000        -0.007970     -0.004019     -0.046512
      1.40361      0.81037      9.79208         0.000242      0.001025      0.138531
      4.21082      0.81037      9.79208        -0.018061     -0.012449      0.066985
      7.01803      0.81037      9.79208         0.017971     -0.012620      0.067262
      2.80721      3.24149      9.79208        -0.021007     -0.008094      0.068294
      5.61443      3.24149      9.79208        -0.000155      0.000375      0.031437
      8.42164      3.24149      9.79208         0.020868     -0.007989      0.068059
      4.21082      5.67261      9.79208        -0.004303      0.021251      0.066081
      7.01803      5.67261      9.79208         0.004316      0.021232      0.066273
      9.82525      5.67261      9.79208        -0.000067      0.001626     -0.024939
      8.42614      1.61855     12.07513        -0.006303      0.004840     -0.009898
      2.80281      1.61858     12.07523         0.005329      0.004842     -0.010692
      5.61439      1.62003     12.05636         0.000600     -0.003062     -0.010207
      9.82517      4.04796     12.06336         0.000027     -0.006131     -0.011945
      4.21002      4.05215     12.05654        -0.002718      0.002883     -0.014315
      7.01868      4.05207     12.05652         0.003265      0.003435     -0.013989
     11.23307      6.48583     12.06332         0.004330      0.001108     -0.013248
      5.61439      6.48727     12.07426         0.000458     -0.001943     -0.005828
      8.41744      6.48594     12.06329        -0.004712     -0.000134     -0.013101
     12.59543      7.27252     14.40111         0.000063      0.002321      0.003303
      7.05517      7.27251     14.40104        -0.001092      0.002643      0.003602
      5.61444      0.00220     14.36003        -0.000559      0.000064      0.010506
      9.82526      2.47665     14.40110        -0.000016     -0.009877     -0.003201
      4.22638      2.44068     14.35954        -0.009249     -0.002378     -0.011665
      7.00247      2.44067     14.35962         0.009375     -0.002425     -0.012324
      2.80887      4.86309     14.36002        -0.003630     -0.004025      0.008112
      5.61441      4.84529     14.35952         0.000146      0.011078     -0.009748
      8.41992      4.86305     14.36006         0.003551     -0.003828      0.007733
      1.40294      0.81709     15.24789         0.001057     -0.007063     -0.006675
 -----------------------------------------------------------------------------------
    total drift:                               -0.000986     -0.015361     -0.092536


--------------------------------------------------------------------------------------------------------



  FREE ENERGIE OF THE ION-ELECTRON SYSTEM (eV)
  ---------------------------------------------------
  free  energy   TOTEN  =      -213.25526005 eV

  energy  without entropy=     -211.10188754  energy(sigma->0) =     -212.17857379
 


--------------------------------------------------------------------------------------------------------


    POTLOK:  cpu time    0.0670: real time    0.0673


--------------------------------------------------------------------------------------------------------


 stress matrix after NEB project (eV)
    -35.46441      0.00431      0.00061
      0.00431    -35.44947     -0.04675
      0.00061     -0.04675     -0.20435
  FORCES: max atom, RMS     0.015673    0.008561
  FORCE total and by dimension    0.052077    0.014315
  Stress total and by dimension   50.144148   35.464412
     LOOP+:  cpu time 1688.9142: real time 1700.8508
    4ORBIT:  cpu time    0.0000: real time    0.0000

 total amount of memory used by VASP on root node   285643. kBytes
========================================================================

   base      :      30000. kBytes
   nonlr-proj:       4564. kBytes
   fftplans  :       4497. kBytes
   grid      :       7117. kBytes
   one-center:        155. kBytes
   wavefun   :     239310. kBytes
 
  
  
 General timing and accounting informations for this job:
 ========================================================
  
                  Total CPU time used (sec):     1716.467
                            User time (sec):     1665.210
                          System time (sec):       51.257
                         Elapsed time (sec):     1728.769
  
                   Maximum memory used (kb):      321968.
                   Average memory used (kb):           0.
  
                          Minor page faults:     22845327
                          Major page faults:           32
                 Voluntary context switches:         3764
