   40   40    1    1
  0.3359208E+02  0.8421642E-09  0.8421642E-09  0.2187624E-08  0.5000000E-15
  1.000000000000000E-004
  CAR 
 unknown system                          
    367     54    220
 
  0.8333333E-01  0.8333333E-01  0.0000000E+00  0.1851852E-01
    1      -10.595263   1.000000
    2       -7.953809   1.000000
    3       -6.626284   1.000000
    4       -5.667476   1.000000
    5       -5.549998   1.000000
    6       -5.542063   1.000000
    7       -5.508129   1.000000
    8       -5.438965   1.000000
    9       -5.392201   1.000000
   10       -5.383136   1.000000
   11       -5.353515   1.000000
   12       -4.915412   1.000000
   13       -4.904560   1.000000
   14       -4.883441   1.000000
   15       -4.880021   1.000000
   16       -4.870379   1.000000
   17       -4.863992   1.000000
   18       -4.414596   1.000000
   19       -4.389772   1.000000
   20       -4.388222   1.000000
   21       -4.361833   1.000000
   22       -4.358003   1.000000
   23       -4.350057   1.000000
   24       -4.274696   1.000000
   25       -4.213639   1.000000
   26       -4.213013   1.000000
   27       -4.101371   1.000000
   28       -4.095248   1.000000
   29       -4.056321   1.000000
   30       -4.018712   1.000000
   31       -4.011695   1.000000
   32       -4.002047   1.000000
   33       -3.965531   1.000000
   34       -3.952929   1.000000
   35       -3.938928   1.000000
   36       -3.935916   1.000000
   37       -3.870660   1.000000
   38       -3.867254   1.000000
   39       -3.835530   1.000000
   40       -3.808257   1.000000
   41       -3.786757   1.000000
   42       -3.761570   1.000000
   43       -3.722384   1.000000
   44       -3.316467   1.000000
   45       -3.305542   1.000000
   46       -3.299189   1.000000
   47       -3.271607   1.000000
   48       -3.265009   1.000000
   49       -3.230109   1.000000
   50       -3.202400   1.000000
   51       -3.161464   1.000000
   52       -3.096553   1.000000
   53       -3.077834   1.000000
   54       -3.056466   1.000000
   55       -3.031296   1.000000
   56       -2.985373   1.000000
   57       -2.957884   1.000000
   58       -2.605867   1.000000
   59       -2.443702   1.000000
   60       -2.430670   1.000000
   61       -2.420083   1.000000
   62       -2.392986   1.000000
   63       -2.378918   1.000000
   64       -2.350422   1.000000
   65       -2.331054   1.000000
   66       -2.323969   1.000000
   67       -2.313918   1.000000
   68       -2.297275   1.000000
   69       -2.261350   1.000000
   70       -2.255649   1.000000
   71       -2.205498   1.000000
   72       -2.197036   1.000000
   73       -2.189973   1.000000
   74       -2.170654   1.000000
   75       -2.162181   1.000000
   76       -2.100018   1.000000
   77       -2.088194   1.000000
   78       -2.067873   1.000000
   79       -2.063071   1.000000
   80       -2.015725   1.000000
   81       -1.986072   1.000000
   82       -1.947884   1.000000
   83       -1.919001   1.000000
   84       -1.905014   1.000000
   85       -1.886234   1.000000
   86       -1.805293   1.000000
   87       -1.779879   1.000000
   88       -1.766741   1.000000
   89       -1.731917   1.000000
   90       -1.717641   1.000000
   91       -1.689515   1.000000
   92       -1.683977   1.000000
   93       -1.663843   1.000000
   94       -1.658924   1.000000
   95       -1.632071   1.000000
   96       -1.629985   1.000000
   97       -1.574824   1.000000
   98       -1.564628   1.000000
   99       -1.534553   1.000000
  100       -1.531165   1.000000
  101       -1.429253   1.000000
  102       -1.406381   1.000000
  103       -1.388686   1.000000
  104       -1.385358   1.000000
  105       -1.380981   1.000000
  106       -1.343832   1.000000
  107       -1.336003   1.000000
  108       -1.310637   1.000000
  109       -1.240133   1.000000
  110       -1.216594   1.000000
  111       -1.063445   1.000000
  112       -1.014008   1.000000
  113       -0.975237   1.000000
  114       -0.950700   1.000000
  115       -0.905464   1.000000
  116       -0.844714   1.000000
  117       -0.817399   1.000000
  118       -0.783209   1.000000
  119       -0.774372   1.000000
  120       -0.755865   1.000000
  121       -0.739090   1.000000
  122       -0.715866   1.000000
  123       -0.706430   1.000000
  124       -0.619915   1.000000
  125       -0.612901   1.000000
  126       -0.568854   1.000000
  127       -0.545324   1.000000
  128       -0.356109   1.000000
  129       -0.335533   1.000000
  130       -0.333137   1.000000
  131       -0.244452   1.000000
  132       -0.240734   1.000000
  133       -0.235598   1.000000
  134       -0.213984   1.000000
  135       -0.205593   1.000000
  136       -0.194081   1.000000
  137       -0.178602   1.000000
  138       -0.092733   0.999999
  139       -0.084558   0.999999
  140       -0.047807   0.999999
  141       -0.024024   0.999998
  142        0.050345   0.999996
  143        0.075493   0.999995
  144        0.117561   0.999992
  145        0.119384   0.999992
  146        0.131917   0.999991
  147        0.144136   0.999990
  148        0.193550   0.999984
  149        0.239053   0.999975
  150        0.342833   0.999928
  151        0.373747   0.999903
  152        0.377417   0.999899
  153        0.392866   0.999882
  154        0.417326   0.999849
  155        0.426144   0.999835
  156        0.465708   0.999755
  157        0.501164   0.999651
  158        0.525350   0.999556
  159        0.542446   0.999473
  160        0.556439   0.999394
  161        0.570443   0.999303
  162        0.589291   0.999159
  163        0.638896   0.998620
  164        0.648670   0.998478
  165        0.683050   0.997855
  166        0.685371   0.997805
  167        0.698819   0.997490
  168        0.708218   0.997243
  169        0.724590   0.996754
  170        0.729810   0.996581
  171        0.754495   0.995628
  172        0.775821   0.994594
  173        0.807239   0.992613
  174        0.816246   0.991923
  175        0.829060   0.990829
  176        0.830764   0.990672
  177        0.873031   0.985835
  178        0.904845   0.980632
  179        0.925662   0.976257
  180        0.984101   0.958195
  181        0.995692   0.953298
  182        0.997218   0.952613
  183        1.013516   0.944689
  184        1.030840   0.934908
  185        1.032634   0.933808
  186        1.053260   0.919861
  187        1.084503   0.893597
  188        1.085883   0.892277
  189        1.100112   0.877819
  190        1.116632   0.858967
  191        1.126768   0.846235
  192        1.139515   0.828907
  193        1.268708   0.571009
  194        1.336390   0.403512
  195        1.352909   0.364465
  196        1.380064   0.304154
  197        1.387507   0.288636
  198        1.400865   0.262000
  199        1.429836   0.209936
  200        1.686429   0.020011
  201        2.012086   0.000786
  202        2.126306   0.000251
  203        2.143187   0.000212
  204        2.306790   0.000041
  205        2.374391   0.000021
  206        2.435938   0.000011
  207        3.551643   0.000000
  208        4.276103   0.000000
  209        4.380213   0.000000
  210        4.546596   0.000000
  211        4.703031   0.000000
  212        4.822443   0.000000
  213        5.441166   0.000000
  214        5.603779   0.000000
  215        5.626954   0.000000
  216        6.094319   0.000000
  217        6.102664   0.000000
  218        6.427250   0.000000
  219        6.479861   0.000000
  220        6.690248   0.000000
 
  0.0000000E+00  0.8333333E-01  0.0000000E+00  0.1851852E-01
    1      -10.595263   1.000000
    2       -7.953795   1.000000
    3       -6.626270   1.000000
    4       -5.662880   1.000000
    5       -5.550456   1.000000
    6       -5.546745   1.000000
    7       -5.508091   1.000000
    8       -5.438942   1.000000
    9       -5.392893   1.000000
   10       -5.387878   1.000000
   11       -5.347817   1.000000
   12       -4.917735   1.000000
   13       -4.906834   1.000000
   14       -4.881056   1.000000
   15       -4.879045   1.000000
   16       -4.869379   1.000000
   17       -4.862980   1.000000
   18       -4.415498   1.000000
   19       -4.390363   1.000000
   20       -4.388456   1.000000
   21       -4.360281   1.000000
   22       -4.358250   1.000000
   23       -4.350168   1.000000
   24       -4.273640   1.000000
   25       -4.214546   1.000000
   26       -4.213521   1.000000
   27       -4.101334   1.000000
   28       -4.095101   1.000000
   29       -4.054586   1.000000
   30       -4.014137   1.000000
   31       -4.011061   1.000000
   32       -4.001251   1.000000
   33       -3.968287   1.000000
   34       -3.955261   1.000000
   35       -3.940284   1.000000
   36       -3.938761   1.000000
   37       -3.870729   1.000000
   38       -3.867277   1.000000
   39       -3.835452   1.000000
   40       -3.807773   1.000000
   41       -3.785594   1.000000
   42       -3.761164   1.000000
   43       -3.722564   1.000000
   44       -3.315536   1.000000
   45       -3.304016   1.000000
   46       -3.298210   1.000000
   47       -3.273172   1.000000
   48       -3.268049   1.000000
   49       -3.229820   1.000000
   50       -3.202478   1.000000
   51       -3.162279   1.000000
   52       -3.096578   1.000000
   53       -3.078195   1.000000
   54       -3.055349   1.000000
   55       -3.030878   1.000000
   56       -2.985161   1.000000
   57       -2.957886   1.000000
   58       -2.606503   1.000000
   59       -2.446307   1.000000
   60       -2.433545   1.000000
   61       -2.422276   1.000000
   62       -2.393747   1.000000
   63       -2.378461   1.000000
   64       -2.350790   1.000000
   65       -2.325123   1.000000
   66       -2.323767   1.000000
   67       -2.315660   1.000000
   68       -2.295861   1.000000
   69       -2.259088   1.000000
   70       -2.256801   1.000000
   71       -2.202799   1.000000
   72       -2.198625   1.000000
   73       -2.193942   1.000000
   74       -2.168276   1.000000
   75       -2.161668   1.000000
   76       -2.100960   1.000000
   77       -2.090249   1.000000
   78       -2.070122   1.000000
   79       -2.063802   1.000000
   80       -2.010878   1.000000
   81       -1.974124   1.000000
   82       -1.943873   1.000000
   83       -1.922570   1.000000
   84       -1.913535   1.000000
   85       -1.889826   1.000000
   86       -1.799698   1.000000
   87       -1.783061   1.000000
   88       -1.771859   1.000000
   89       -1.730470   1.000000
   90       -1.721569   1.000000
   91       -1.686172   1.000000
   92       -1.682862   1.000000
   93       -1.661049   1.000000
   94       -1.657575   1.000000
   95       -1.631810   1.000000
   96       -1.629503   1.000000
   97       -1.574627   1.000000
   98       -1.564867   1.000000
   99       -1.534674   1.000000
  100       -1.531105   1.000000
  101       -1.435957   1.000000
  102       -1.402947   1.000000
  103       -1.389348   1.000000
  104       -1.384950   1.000000
  105       -1.381475   1.000000
  106       -1.341030   1.000000
  107       -1.335962   1.000000
  108       -1.309252   1.000000
  109       -1.234553   1.000000
  110       -1.223180   1.000000
  111       -1.064779   1.000000
  112       -1.013942   1.000000
  113       -0.975707   1.000000
  114       -0.951047   1.000000
  115       -0.906464   1.000000
  116       -0.845031   1.000000
  117       -0.817753   1.000000
  118       -0.783414   1.000000
  119       -0.775352   1.000000
  120       -0.755339   1.000000
  121       -0.740483   1.000000
  122       -0.714385   1.000000
  123       -0.704564   1.000000
  124       -0.618365   1.000000
  125       -0.612988   1.000000
  126       -0.567798   1.000000
  127       -0.544555   1.000000
  128       -0.355920   1.000000
  129       -0.334279   1.000000
  130       -0.333890   1.000000
  131       -0.246239   1.000000
  132       -0.238001   1.000000
  133       -0.233281   1.000000
  134       -0.212450   1.000000
  135       -0.208385   1.000000
  136       -0.195715   1.000000
  137       -0.178891   1.000000
  138       -0.091099   0.999999
  139       -0.083896   0.999999
  140       -0.044014   0.999999
  141       -0.022499   0.999998
  142        0.050308   0.999996
  143        0.074871   0.999995
  144        0.117068   0.999993
  145        0.122507   0.999992
  146        0.130111   0.999991
  147        0.141352   0.999990
  148        0.192910   0.999984
  149        0.237131   0.999975
  150        0.340127   0.999930
  151        0.374263   0.999902
  152        0.377032   0.999899
  153        0.391059   0.999884
  154        0.417343   0.999849
  155        0.426428   0.999835
  156        0.466051   0.999755
  157        0.501961   0.999649
  158        0.525992   0.999553
  159        0.542329   0.999474
  160        0.556980   0.999391
  161        0.570187   0.999305
  162        0.590562   0.999148
  163        0.638017   0.998632
  164        0.648631   0.998479
  165        0.685176   0.997809
  166        0.686393   0.997782
  167        0.697983   0.997511
  168        0.708807   0.997227
  169        0.723451   0.996791
  170        0.728773   0.996616
  171        0.753752   0.995660
  172        0.773452   0.994720
  173        0.809569   0.992440
  174        0.816156   0.991930
  175        0.825342   0.991160
  176        0.834126   0.990357
  177        0.872268   0.985941
  178        0.903601   0.980867
  179        0.924815   0.976452
  180        0.981927   0.959058
  181        0.995213   0.953510
  182        0.996595   0.952894
  183        1.015158   0.943825
  184        1.031714   0.934374
  185        1.036446   0.931412
  186        1.054238   0.919136
  187        1.085235   0.892899
  188        1.086555   0.891630
  189        1.099799   0.878154
  190        1.117404   0.858028
  191        1.123471   0.850476
  192        1.147859   0.816746
  193        1.258471   0.595883
  194        1.340233   0.394299
  195        1.350801   0.369361
  196        1.381961   0.300155
  197        1.386653   0.290393
  198        1.398142   0.267299
  199        1.428046   0.212920
  200        1.687142   0.019872
  201        2.016008   0.000756
  202        2.121105   0.000264
  203        2.142008   0.000214
  204        2.307221   0.000041
  205        2.373497   0.000021
  206        2.439834   0.000011
  207        3.552057   0.000000
  208        4.280961   0.000000
  209        4.375644   0.000000
  210        4.543366   0.000000
  211        4.700512   0.000000
  212        4.826905   0.000000
  213        5.441616   0.000000
  214        5.604912   0.000000
  215        5.627900   0.000000
  216        6.090565   0.000000
  217        6.099386   0.000000
  218        6.426237   0.000000
  219        6.497241   0.000000
  220        6.685733   0.000000
 
 -0.8333333E-01  0.0000000E+00  0.0000000E+00  0.1851852E-01
    1      -10.595263   1.000000
    2       -7.953816   1.000000
    3       -6.626289   1.000000
    4       -5.669416   1.000000
    5       -5.547863   1.000000
    6       -5.542061   1.000000
    7       -5.508120   1.000000
    8       -5.438999   1.000000
    9       -5.390351   1.000000
   10       -5.382751   1.000000
   11       -5.355840   1.000000
   12       -4.914535   1.000000
   13       -4.904683   1.000000
   14       -4.883246   1.000000
   15       -4.880108   1.000000
   16       -4.870136   1.000000
   17       -4.865382   1.000000
   18       -4.414768   1.000000
   19       -4.389641   1.000000
   20       -4.387259   1.000000
   21       -4.362899   1.000000
   22       -4.357535   1.000000
   23       -4.350011   1.000000
   24       -4.274624   1.000000
   25       -4.214078   1.000000
   26       -4.212875   1.000000
   27       -4.101796   1.000000
   28       -4.095487   1.000000
   29       -4.056200   1.000000
   30       -4.019056   1.000000
   31       -4.013109   1.000000
   32       -4.004194   1.000000
   33       -3.963159   1.000000
   34       -3.952235   1.000000
   35       -3.937959   1.000000
   36       -3.934437   1.000000
   37       -3.870887   1.000000
   38       -3.867734   1.000000
   39       -3.835390   1.000000
   40       -3.808308   1.000000
   41       -3.786524   1.000000
   42       -3.761573   1.000000
   43       -3.723127   1.000000
   44       -3.316631   1.000000
   45       -3.305957   1.000000
   46       -3.299910   1.000000
   47       -3.270413   1.000000
   48       -3.264678   1.000000
   49       -3.229677   1.000000
   50       -3.202756   1.000000
   51       -3.161069   1.000000
   52       -3.096785   1.000000
   53       -3.077548   1.000000
   54       -3.056671   1.000000
   55       -3.031651   1.000000
   56       -2.985144   1.000000
   57       -2.958037   1.000000
   58       -2.605541   1.000000
   59       -2.442812   1.000000
   60       -2.428238   1.000000
   61       -2.420174   1.000000
   62       -2.394387   1.000000
   63       -2.377671   1.000000
   64       -2.351803   1.000000
   65       -2.332548   1.000000
   66       -2.324864   1.000000
   67       -2.312319   1.000000
   68       -2.296573   1.000000
   69       -2.261556   1.000000
   70       -2.256396   1.000000
   71       -2.203824   1.000000
   72       -2.197685   1.000000
   73       -2.189340   1.000000
   74       -2.171074   1.000000
   75       -2.162344   1.000000
   76       -2.099768   1.000000
   77       -2.086709   1.000000
   78       -2.067874   1.000000
   79       -2.061564   1.000000
   80       -2.017706   1.000000
   81       -1.992437   1.000000
   82       -1.949722   1.000000
   83       -1.915338   1.000000
   84       -1.906639   1.000000
   85       -1.881240   1.000000
   86       -1.810693   1.000000
   87       -1.774981   1.000000
   88       -1.765005   1.000000
   89       -1.730299   1.000000
   90       -1.718419   1.000000
   91       -1.693169   1.000000
   92       -1.683068   1.000000
   93       -1.664004   1.000000
   94       -1.660737   1.000000
   95       -1.632092   1.000000
   96       -1.630517   1.000000
   97       -1.574922   1.000000
   98       -1.564420   1.000000
   99       -1.534070   1.000000
  100       -1.531281   1.000000
  101       -1.426003   1.000000
  102       -1.406862   1.000000
  103       -1.388284   1.000000
  104       -1.385319   1.000000
  105       -1.380868   1.000000
  106       -1.344002   1.000000
  107       -1.338872   1.000000
  108       -1.311637   1.000000
  109       -1.242415   1.000000
  110       -1.213238   1.000000
  111       -1.062621   1.000000
  112       -1.013769   1.000000
  113       -0.974485   1.000000
  114       -0.950747   1.000000
  115       -0.904947   1.000000
  116       -0.845827   1.000000
  117       -0.817064   1.000000
  118       -0.782783   1.000000
  119       -0.774522   1.000000
  120       -0.756856   1.000000
  121       -0.738022   1.000000
  122       -0.716429   1.000000
  123       -0.707230   1.000000
  124       -0.619477   1.000000
  125       -0.613664   1.000000
  126       -0.569063   1.000000
  127       -0.546200   1.000000
  128       -0.355760   1.000000
  129       -0.335249   1.000000
  130       -0.332597   1.000000
  131       -0.242680   1.000000
  132       -0.241501   1.000000
  133       -0.238093   1.000000
  134       -0.214326   1.000000
  135       -0.204645   1.000000
  136       -0.193663   1.000000
  137       -0.178652   1.000000
  138       -0.093817   0.999999
  139       -0.084843   0.999999
  140       -0.049687   0.999999
  141       -0.025073   0.999998
  142        0.050995   0.999996
  143        0.075750   0.999995
  144        0.115526   0.999993
  145        0.118616   0.999992
  146        0.132579   0.999991
  147        0.147010   0.999990
  148        0.194047   0.999984
  149        0.239691   0.999974
  150        0.343743   0.999928
  151        0.374128   0.999902
  152        0.377208   0.999899
  153        0.393996   0.999881
  154        0.417362   0.999849
  155        0.425347   0.999837
  156        0.465144   0.999757
  157        0.500804   0.999653
  158        0.524918   0.999558
  159        0.542430   0.999474
  160        0.556069   0.999397
  161        0.570681   0.999302
  162        0.589018   0.999161
  163        0.639111   0.998617
  164        0.649023   0.998473
  165        0.682950   0.997857
  166        0.684869   0.997816
  167        0.698913   0.997487
  168        0.708201   0.997244
  169        0.725251   0.996733
  170        0.729874   0.996579
  171        0.755395   0.995588
  172        0.776586   0.994553
  173        0.806187   0.992690
  174        0.816695   0.991887
  175        0.829418   0.990796
  176        0.830384   0.990708
  177        0.873093   0.985827
  178        0.904902   0.980622
  179        0.926441   0.976076
  180        0.984838   0.957899
  181        0.995643   0.953319
  182        0.997611   0.952436
  183        1.013156   0.944877
  184        1.029029   0.936001
  185        1.032748   0.933738
  186        1.053053   0.920013
  187        1.083823   0.894242
  188        1.085558   0.892590
  189        1.100452   0.877454
  190        1.115980   0.859754
  191        1.127234   0.845628
  192        1.136526   0.833104
  193        1.273089   0.560246
  194        1.334892   0.407125
  195        1.353612   0.362837
  196        1.379792   0.304730
  197        1.387767   0.288103
  198        1.401651   0.260484
  199        1.430930   0.208128
  200        1.686243   0.020048
  201        2.010422   0.000799
  202        2.128543   0.000245
  203        2.143702   0.000211
  204        2.306786   0.000041
  205        2.373999   0.000021
  206        2.434675   0.000011
  207        3.551361   0.000000
  208        4.273055   0.000000
  209        4.382961   0.000000
  210        4.548659   0.000000
  211        4.704951   0.000000
  212        4.819313   0.000000
  213        5.440843   0.000000
  214        5.603217   0.000000
  215        5.626687   0.000000
  216        6.096155   0.000000
  217        6.104244   0.000000
  218        6.429967   0.000000
  219        6.472357   0.000000
  220        6.681692   0.000000
 
  0.2500000E+00  0.8333333E-01  0.0000000E+00  0.1851852E-01
    1      -10.594914   1.000000
    2       -7.797504   1.000000
    3       -6.473170   1.000000
    4       -6.033688   1.000000
    5       -5.839066   1.000000
    6       -5.397049   1.000000
    7       -5.351579   1.000000
    8       -5.294237   1.000000
    9       -5.251591   1.000000
   10       -5.234088   1.000000
   11       -5.210379   1.000000
   12       -5.037409   1.000000
   13       -4.951723   1.000000
   14       -4.922941   1.000000
   15       -4.875025   1.000000
   16       -4.747415   1.000000
   17       -4.735083   1.000000
   18       -4.483240   1.000000
   19       -4.419230   1.000000
   20       -4.334924   1.000000
   21       -4.321780   1.000000
   22       -4.285451   1.000000
   23       -4.277600   1.000000
   24       -4.263928   1.000000
   25       -4.239626   1.000000
   26       -4.230431   1.000000
   27       -4.154234   1.000000
   28       -4.137756   1.000000
   29       -4.120861   1.000000
   30       -4.103506   1.000000
   31       -4.063520   1.000000
   32       -4.023521   1.000000
   33       -4.007296   1.000000
   34       -3.973854   1.000000
   35       -3.931446   1.000000
   36       -3.861676   1.000000
   37       -3.845128   1.000000
   38       -3.764377   1.000000
   39       -3.731897   1.000000
   40       -3.695383   1.000000
   41       -3.679576   1.000000
   42       -3.645224   1.000000
   43       -3.616807   1.000000
   44       -3.443096   1.000000
   45       -3.386764   1.000000
   46       -3.350774   1.000000
   47       -3.344369   1.000000
   48       -3.307626   1.000000
   49       -3.266524   1.000000
   50       -3.207370   1.000000
   51       -3.136889   1.000000
   52       -3.072290   1.000000
   53       -3.023262   1.000000
   54       -3.013105   1.000000
   55       -2.983186   1.000000
   56       -2.958629   1.000000
   57       -2.943740   1.000000
   58       -2.797062   1.000000
   59       -2.747235   1.000000
   60       -2.618738   1.000000
   61       -2.530441   1.000000
   62       -2.514338   1.000000
   63       -2.493372   1.000000
   64       -2.467635   1.000000
   65       -2.451441   1.000000
   66       -2.399198   1.000000
   67       -2.384943   1.000000
   68       -2.370991   1.000000
   69       -2.317506   1.000000
   70       -2.291327   1.000000
   71       -2.280779   1.000000
   72       -2.252516   1.000000
   73       -2.228694   1.000000
   74       -2.201501   1.000000
   75       -2.178420   1.000000
   76       -2.158364   1.000000
   77       -2.104539   1.000000
   78       -2.046970   1.000000
   79       -2.017542   1.000000
   80       -1.987103   1.000000
   81       -1.937613   1.000000
   82       -1.929838   1.000000
   83       -1.921620   1.000000
   84       -1.897822   1.000000
   85       -1.879144   1.000000
   86       -1.851151   1.000000
   87       -1.813940   1.000000
   88       -1.785706   1.000000
   89       -1.770286   1.000000
   90       -1.733852   1.000000
   91       -1.719629   1.000000
   92       -1.714436   1.000000
   93       -1.683666   1.000000
   94       -1.669246   1.000000
   95       -1.652312   1.000000
   96       -1.647225   1.000000
   97       -1.615323   1.000000
   98       -1.585292   1.000000
   99       -1.542079   1.000000
  100       -1.520351   1.000000
  101       -1.496065   1.000000
  102       -1.469939   1.000000
  103       -1.438923   1.000000
  104       -1.418630   1.000000
  105       -1.404525   1.000000
  106       -1.378525   1.000000
  107       -1.347876   1.000000
  108       -1.309604   1.000000
  109       -1.291725   1.000000
  110       -1.268259   1.000000
  111       -1.237370   1.000000
  112       -1.182682   1.000000
  113       -1.155671   1.000000
  114       -1.089623   1.000000
  115       -1.062826   1.000000
  116       -1.024320   1.000000
  117       -0.957678   1.000000
  118       -0.913960   1.000000
  119       -0.844532   1.000000
  120       -0.804660   1.000000
  121       -0.769829   1.000000
  122       -0.743147   1.000000
  123       -0.728210   1.000000
  124       -0.704963   1.000000
  125       -0.673411   1.000000
  126       -0.643318   1.000000
  127       -0.593694   1.000000
  128       -0.532188   1.000000
  129       -0.466738   1.000000
  130       -0.398830   1.000000
  131       -0.326183   1.000000
  132       -0.314387   1.000000
  133       -0.296514   1.000000
  134       -0.244455   1.000000
  135       -0.231647   1.000000
  136       -0.198007   1.000000
  137       -0.185533   1.000000
  138       -0.150224   0.999999
  139       -0.111981   0.999999
  140       -0.021977   0.999998
  141        0.013432   0.999997
  142        0.030444   0.999997
  143        0.053562   0.999996
  144        0.090990   0.999994
  145        0.110738   0.999993
  146        0.129339   0.999992
  147        0.147173   0.999990
  148        0.169313   0.999987
  149        0.191993   0.999984
  150        0.204842   0.999982
  151        0.246155   0.999973
  152        0.272800   0.999964
  153        0.294777   0.999956
  154        0.305405   0.999951
  155        0.357640   0.999917
  156        0.374910   0.999901
  157        0.404076   0.999868
  158        0.441876   0.999807
  159        0.502803   0.999646
  160        0.536500   0.999504
  161        0.567716   0.999322
  162        0.612962   0.998935
  163        0.638808   0.998621
  164        0.694828   0.997588
  165        0.728495   0.996625
  166        0.736749   0.996336
  167        0.775301   0.994622
  168        0.799610   0.993152
  169        0.835184   0.990255
  170        0.865389   0.986864
  171        0.891197   0.983061
  172        0.930007   0.975229
  173        0.950377   0.969801
  174        0.992281   0.954793
  175        1.013070   0.944922
  176        1.026086   0.937742
  177        1.050142   0.922129
  178        1.067731   0.908523
  179        1.091230   0.887029
  180        1.116252   0.859426
  181        1.126114   0.847084
  182        1.160778   0.796615
  183        1.202182   0.721362
  184        1.231728   0.658310
  185        1.245722   0.626173
  186        1.269587   0.568856
  187        1.280768   0.541248
  188        1.309010   0.470770
  189        1.330638   0.417430
  190        1.362553   0.342431
  191        1.391696   0.280111
  192        1.438611   0.195753
  193        1.495187   0.121444
  194        1.497210   0.119303
  195        1.526083   0.092140
  196        1.548336   0.075139
  197        1.612274   0.041103
  198        1.698057   0.017854
  199        1.818554   0.005419
  200        1.848739   0.004012
  201        1.871721   0.003191
  202        2.237411   0.000083
  203        2.525218   0.000005
  204        2.740400   0.000001
  205        2.940404   0.000000
  206        2.984867   0.000000
  207        3.510027   0.000000
  208        3.911158   0.000000
  209        4.282536   0.000000
  210        4.651702   0.000000
  211        4.705814   0.000000
  212        5.048571   0.000000
  213        5.184816   0.000000
  214        5.353493   0.000000
  215        5.552674   0.000000
  216        5.688732   0.000000
  217        5.761076   0.000000
  218        6.231745   0.000000
  219        6.474069   0.000000
  220        6.656547   0.000000
 
  0.1666667E+00  0.2500000E+00  0.0000000E+00  0.1851852E-01
    1      -10.594913   1.000000
    2       -7.797376   1.000000
    3       -6.473072   1.000000
    4       -6.032588   1.000000
    5       -5.835847   1.000000
    6       -5.403930   1.000000
    7       -5.351278   1.000000
    8       -5.293736   1.000000
    9       -5.250575   1.000000
   10       -5.240119   1.000000
   11       -5.204737   1.000000
   12       -5.037793   1.000000
   13       -4.951726   1.000000