 vasp.5.4.1 24Jun15 (build Oct 10 2016 12:42:00) complex                        
  
 executed on           IFC91_ompi date 2018.06.20  18:36:58
 running on   20 total cores
 distrk:  each k-point on   20 cores,    1 groups
 distr:  one band on NCORES_PER_BAND=   4 cores,    5 groups


--------------------------------------------------------------------------------------------------------


 INCAR:
 POTCAR:    PAW_PBE Pt 04Feb2005                  
 POTCAR:    PAW_PBE C 08Apr2002                   
 POTCAR:    PAW_PBE H 15Jun2001                   
 POTCAR:    PAW_PBE Pt 04Feb2005                  
   VRHFIN =Pt: s1d9                                                             
   LEXCH  = PE                                                                  
   EATOM  =   729.1176 eV,   53.5886 Ry                                         
                                                                                
   TITEL  = PAW_PBE Pt 04Feb2005                                                
   LULTRA =        F    use ultrasoft PP ?                                      
   IUNSCR =        1    unscreen: 0-lin 1-nonlin 2-no                           
   RPACOR =    2.330    partial core radius                                     
   POMASS =  195.080; ZVAL   =   10.000    mass and valenz                      
   RCORE  =    2.600    outmost cutoff radius                                   
   RWIGS  =    2.750; RWIGS  =    1.455    wigner-seitz radius (au A)           
   ENMAX  =  230.283; ENMIN  =  172.712 eV                                      
   ICORE  =        3    local potential                                         
   LCOR   =        T    correct aug charges                                     
   LPAW   =        T    paw PP                                                  
   EAUG   =  358.966                                                            
   DEXC   =    0.000                                                            
   RMAX   =    2.658    core radius for proj-oper                               
   RAUG   =    1.300    factor for augmentation sphere                          
   RDEP   =    2.761    radius for radial grids                                 
   RDEPT  =    2.203    core radius for aug-charge                              
                                                                                
   Atomic configuration                                                         
   16 entries                                                                   
     n  l   j            E        occ.                                          
     1  0  0.50    -78401.1885   2.0000                                         
     2  0  0.50    -13770.7750   2.0000                                         
     2  1  1.50    -11931.0468   6.0000                                         
     3  0  0.50     -3234.7234   2.0000                                         
     3  1  1.50     -2699.2216   6.0000                                         
     3  2  2.50     -2119.5714  10.0000                                         
     4  0  0.50      -695.1528   2.0000                                         
     4  1  1.50      -519.6034   6.0000                                         
     4  2  2.50      -306.6786  10.0000                                         
     4  3  3.50       -70.1041  14.0000                                         
     5  0  0.50      -101.7747   2.0000                                         
     5  1  1.50       -55.9873   6.0000                                         
     5  2  2.50        -6.1423   9.0000                                         
     6  0  0.50        -5.6573   1.0000                                         
     6  1  1.50        -6.8029   0.0000                                         
     5  3  2.50        -1.3606   0.0000                                         
   Description                                                                  
     l       E           TYP  RCUT    TYP  RCUT                                 
     2     -6.1423404     23  2.500                                             
     2     -7.5029230     23  2.500                                             
     0     -5.6573207     23  2.500                                             
     0      0.7416693     23  2.500                                             
     1     -2.7211652     23  2.600                                             
     1     20.4087390     23  2.600                                             
     3     -1.3605826     23  2.500                                             
  local pseudopotential read in
  partial core-charges read in
  partial kinetic energy density read in
  atomic valenz-charges read in
  non local Contribution for L=           2  read in
    real space projection operators read in
  non local Contribution for L=           2  read in
    real space projection operators read in
  non local Contribution for L=           0  read in
    real space projection operators read in
  non local Contribution for L=           0  read in
    real space projection operators read in
  non local Contribution for L=           1  read in
    real space projection operators read in
  non local Contribution for L=           1  read in
    real space projection operators read in
    PAW grid and wavefunctions read in
 
   number of l-projection  operators is LMAX  =           6
   number of lm-projection operators is LMMAX =          18
 
 POTCAR:    PAW_PBE C 08Apr2002                   
   VRHFIN =C: s2p2                                                              
   LEXCH  = PE                                                                  
   EATOM  =   147.1560 eV,   10.8157 Ry                                         
                                                                                
   TITEL  = PAW_PBE C 08Apr2002                                                 
   LULTRA =        F    use ultrasoft PP ?                                      
   IUNSCR =        1    unscreen: 0-lin 1-nonlin 2-no                           
   RPACOR =    1.200    partial core radius                                     
   POMASS =   12.011; ZVAL   =    4.000    mass and valenz                      
   RCORE  =    1.500    outmost cutoff radius                                   
   RWIGS  =    1.630; RWIGS  =    0.863    wigner-seitz radius (au A)           
   ENMAX  =  400.000; ENMIN  =  300.000 eV                                      
   ICORE  =        2    local potential                                         
   LCOR   =        T    correct aug charges                                     
   LPAW   =        T    paw PP                                                  
   EAUG   =  644.873                                                            
   DEXC   =    0.000                                                            
   RMAX   =    1.529    core radius for proj-oper                               
   RAUG   =    1.300    factor for augmentation sphere                          
   RDEP   =    1.501    radius for radial grids                                 
   RDEPT  =    1.300    core radius for aug-charge                              
                                                                                
   Atomic configuration                                                         
    4 entries                                                                   
     n  l   j            E        occ.                                          
     1  0  0.50      -273.3789   2.0000                                         
     2  0  0.50       -13.7508   2.0000                                         
     2  1  0.50        -5.2854   2.0000                                         
     3  2  1.50        -5.4423   0.0000                                         
   Description                                                                  
     l       E           TYP  RCUT    TYP  RCUT                                 
     0    -13.7508458     23  1.200                                             
     0     -8.2022199     23  1.200                                             
     1     -5.2854383     23  1.500                                             
     1     34.0145650     23  1.500                                             
     2     -5.4423304      7  1.500                                             
  local pseudopotential read in
  partial core-charges read in
  partial kinetic energy density read in
  atomic valenz-charges read in
  non local Contribution for L=           0  read in
    real space projection operators read in
  non local Contribution for L=           0  read in
    real space projection operators read in
  non local Contribution for L=           1  read in
    real space projection operators read in
  non local Contribution for L=           1  read in
    real space projection operators read in
    PAW grid and wavefunctions read in
 
   number of l-projection  operators is LMAX  =           4
   number of lm-projection operators is LMMAX =           8
 
 POTCAR:    PAW_PBE H 15Jun2001                   
   VRHFIN =H: ultrasoft test                                                    
   LEXCH  = PE                                                                  
   EATOM  =    12.4884 eV,    0.9179 Ry                                         
                                                                                
   TITEL  = PAW_PBE H 15Jun2001                                                 
   LULTRA =        F    use ultrasoft PP ?                                      
   IUNSCR =        0    unscreen: 0-lin 1-nonlin 2-no                           
   RPACOR =    0.000    partial core radius                                     
   POMASS =    1.000; ZVAL   =    1.000    mass and valenz                      
   RCORE  =    1.100    outmost cutoff radius                                   
   RWIGS  =    0.700; RWIGS  =    0.370    wigner-seitz radius (au A)           
   ENMAX  =  250.000; ENMIN  =  200.000 eV                                      
   RCLOC  =    0.701    cutoff for local pot                                    
   LCOR   =        T    correct aug charges                                     
   LPAW   =        T    paw PP                                                  
   EAUG   =  400.000                                                            
   RMAX   =    1.123    core radius for proj-oper                               
   RAUG   =    1.200    factor for augmentation sphere                          
   RDEP   =    1.112    radius for radial grids                                 
   RDEPT  =    0.926    core radius for aug-charge                              
                                                                                
   Atomic configuration                                                         
    2 entries                                                                   
     n  l   j            E        occ.                                          
     1  0  0.50        -6.4927   1.0000                                         
     2  1  0.50        -3.4015   0.0000                                         
   Description                                                                  
     l       E           TYP  RCUT    TYP  RCUT                                 
     0     -6.4927494     23  1.100                                             
     0      6.8029130     23  1.100                                             
     1     -4.0817478     23  1.100                                             
  local pseudopotential read in
  atomic valenz-charges read in
  non local Contribution for L=           0  read in
    real space projection operators read in
  non local Contribution for L=           0  read in
    real space projection operators read in
  non local Contribution for L=           1  read in
    real space projection operators read in
    PAW grid and wavefunctions read in
 
   number of l-projection  operators is LMAX  =           3
   number of lm-projection operators is LMMAX =           5
 
 Optimization of the real space projectors (new method)

 maximal supplied QI-value         = 14.36
 optimisation between [QCUT,QGAM] = [ 10.20, 20.39] = [ 29.12,116.47] Ry 
 Optimized for a Real-space Cutoff    1.51 Angstroem

   l    n(q)    QCUT    max X(q) W(low)/X(q) W(high)/X(q)  e(spline) 
   2      8    10.197    66.195    0.45E-03    0.45E-03    0.14E-06
   2      8    10.197    64.643    0.46E-03    0.46E-03    0.14E-06
   0      9    10.197    95.520    0.15E-03    0.11E-03    0.54E-07
   0      9    10.197    63.403    0.15E-03    0.11E-03    0.52E-07
   1      9    10.197    19.961    0.13E-03    0.17E-03    0.77E-07
   1      9    10.197    13.289    0.10E-03    0.15E-03    0.67E-07
 Optimization of the real space projectors (new method)

 maximal supplied QI-value         = 25.13
 optimisation between [QCUT,QGAM] = [ 10.05, 20.36] = [ 28.30,116.06] Ry 
 Optimized for a Real-space Cutoff    1.30 Angstroem

   l    n(q)    QCUT    max X(q) W(low)/X(q) W(high)/X(q)  e(spline) 
   0      8    10.053   115.676    0.49E-03    0.72E-03    0.18E-06
   0      8    10.053    87.132    0.49E-03    0.71E-03    0.18E-06
   1      7    10.053     4.429    0.32E-03    0.31E-03    0.18E-06
   1      7    10.053     2.733    0.23E-03    0.19E-03    0.20E-06
 Optimization of the real space projectors (new method)

 maximal supplied QI-value         = 34.20
 optimisation between [QCUT,QGAM] = [  9.92, 20.18] = [ 27.55,114.04] Ry 
 Optimized for a Real-space Cutoff    1.26 Angstroem

   l    n(q)    QCUT    max X(q) W(low)/X(q) W(high)/X(q)  e(spline) 
   0      8     9.919    19.460    0.50E-03    0.23E-03    0.29E-06
   0      8     9.919    12.209    0.48E-03    0.23E-03    0.28E-06
   1      7     9.919     4.655    0.17E-03    0.75E-03    0.30E-06
  PAW_PBE Pt 04Feb2005                  :
 energy of atom  1       EATOM= -729.1176
 kinetic energy error for atom=    0.0056 (will be added to EATOM!!)
  PAW_PBE C 08Apr2002                   :
 energy of atom  2       EATOM= -147.1560
 kinetic energy error for atom=    0.0288 (will be added to EATOM!!)
  PAW_PBE H 15Jun2001                   :
 energy of atom  3       EATOM=  -12.4884
 kinetic energy error for atom=    0.0098 (will be added to EATOM!!)
 
 
 POSCAR: Pt  C  H                                
  positions in cartesian coordinates
  No initial velocities read in
 exchange correlation table for  LEXCH =        8
   RHO(1)=    0.500       N(1)  =     2000
   RHO(2)=  100.500       N(2)  =     4000

 VTST: version 3.1, (03/28/14)

 CHAIN: initializing optimizer
 
 OPT: Using VASP Dynamics algorithm
 CHAIN: Read ICHAIN            0
 
 POSCAR: Pt  C  H                                
  positions in cartesian coordinates
  No initial velocities read in
 


--------------------------------------------------------------------------------------------------------


 ion  position               nearest neighbor table
   1  0.000  0.000  0.343-  12 2.81  16 2.81  10 2.81   6 2.81   7 2.81   8 2.81   2 2.81   3 2.81
                             4 2.81
   2  0.333  0.000  0.343-  10 2.81  11 2.81  17 2.81   3 2.81   9 2.81   1 2.81   4 2.81   5 2.81
                             8 2.81
   3  0.667  0.000  0.343-  11 2.81  18 2.81  12 2.81   2 2.81   5 2.81   9 2.81   1 2.81   6 2.81
                             7 2.81
   4  0.000  0.333  0.343-  10 2.81  13 2.81  15 2.81   7 2.81   9 2.81   2 2.81   5 2.81   6 2.81
                             1 2.81
   5  0.333  0.333  0.343-  14 2.81  13 2.81  11 2.81   8 2.81   6 2.81   3 2.81   7 2.81   2 2.81
                             4 2.81
   6  0.667  0.333  0.343-  12 2.81  14 2.81  15 2.81   5 2.81   8 2.81   9 2.81   1 2.81   3 2.81
                             4 2.81
   7  0.000  0.667  0.343-  13 2.81  18 2.81  16 2.81   4 2.81   5 2.81   9 2.81   1 2.81   3 2.81
                             8 2.81
   8  0.333  0.667  0.343-  14 2.81  16 2.81  17 2.81   5 2.81   6 2.81   9 2.81   2 2.81   7 2.81
                             1 2.81
   9  0.667  0.667  0.343-  15 2.81  17 2.81  18 2.81   8 2.81   6 2.81   4 2.81   2 2.81   3 2.81
                             7 2.81
  10  0.111  0.111  0.448-  26 2.77  19 2.78   2 2.81   4 2.81   1 2.81  11 2.81  13 2.81  15 2.81
                            17 2.81  16 2.81  12 2.81  20 2.82
  11  0.444  0.111  0.448-  27 2.78  21 2.80   5 2.81   2 2.81   3 2.81  14 2.81  10 2.81  13 2.81
                            18 2.81  12 2.81  17 2.81  20 2.81
  12  0.778  0.111  0.448-  25 2.77  19 2.78   1 2.81   6 2.81   3 2.81  15 2.81  14 2.81  16 2.81
                            18 2.81  10 2.81  11 2.81  21 2.82
  13  0.111  0.444  0.448-  22 2.79  20 2.80  23 2.81   4 2.81   5 2.81   7 2.81  10 2.81  11 2.81
                            14 2.81  15 2.81  16 2.81  18 2.81
  14  0.444  0.444  0.448-  24 2.78  21 2.80   5 2.81   6 2.81   8 2.81  11 2.81  13 2.81  12 2.81
                            16 2.81  15 2.81  17 2.81  23 2.81
  15  0.778  0.444  0.448-  19 2.77  22 2.78  24 2.79   4 2.81   6 2.81   9 2.81  12 2.81  10 2.81
                            18 2.81  13 2.81  14 2.81  17 2.81
  16  0.111  0.778  0.448-  26 2.78  25 2.78   1 2.81   8 2.81   7 2.81  17 2.81  14 2.81  12 2.81
                            18 2.81  13 2.81  10 2.81  23 2.81
  17  0.444  0.778  0.448-  24 2.78  27 2.78  26 2.79   2 2.81   8 2.81   9 2.81  16 2.81  10 2.81
                            18 2.81  14 2.81  15 2.81  11 2.81
  18  0.778  0.778  0.448-  22 2.78  25 2.78  27 2.79   7 2.81   3 2.81   9 2.81  15 2.81  16 2.81
                            17 2.81  11 2.81  12 2.81  13 2.81
  19  0.888  0.224  0.551-  15 2.77  12 2.78  10 2.78  24 2.81  22 2.81  25 2.81  28 2.81  26 2.81
                            31 2.81  33 2.81  21 2.82  20 2.83
  20  0.223  0.225  0.553-  21 2.77  23 2.78  29 2.78  31 2.80  13 2.80  27 2.80  22 2.81  11 2.81
                            10 2.82  26 2.82  19 2.83  32 2.96
  21  0.552  0.225  0.552-  20 2.77  23 2.77  30 2.78  33 2.79  14 2.80  11 2.80  27 2.81  24 2.81
                            25 2.82  12 2.82  19 2.82  32 2.96
  22  0.888  0.557  0.551-  18 2.78  15 2.78  13 2.79  31 2.80  23 2.81  25 2.81  19 2.81  20 2.81
                            27 2.81  34 2.81  24 2.81  36 2.82
  23  0.223  0.554  0.553-  21 2.77  20 2.78  35 2.79  34 2.80  24 2.81  13 2.81  22 2.81  14 2.81
                            16 2.81  26 2.82  25 2.82  32 2.95
  24  0.554  0.557  0.551-  17 2.78  14 2.78  15 2.79  33 2.80  23 2.81  19 2.81  21 2.81  26 2.81
                            27 2.81  22 2.81  36 2.81  35 2.81
  25  0.888  0.890  0.551-  12 2.77  18 2.78  16 2.78  34 2.80  22 2.81  27 2.81  19 2.81  26 2.81
                            28 2.81  30 2.82  21 2.82  23 2.82
  26  0.221  0.890  0.551-  10 2.77  16 2.78  17 2.79  35 2.80  27 2.81  24 2.81  25 2.81  19 2.81
                            29 2.81  28 2.82  20 2.82  23 2.82
  27  0.554  0.891  0.551-  11 2.78  17 2.78  18 2.79  36 2.80  20 2.80  21 2.81  26 2.81  25 2.81
                            24 2.81  22 2.81  30 2.81  29 2.82
  28  0.997  0.003  0.656-  34 2.80  30 2.80  33 2.80  31 2.80  29 2.80  35 2.81  19 2.81  25 2.81
                            26 2.82
  29  0.331  0.003  0.656-  20 2.78  35 2.80  28 2.80  36 2.81  26 2.81  31 2.81  30 2.81  27 2.82
                            32 2.82
  30  0.665  0.003  0.656-  21 2.78  34 2.80  28 2.80  36 2.81  33 2.81  27 2.81  29 2.81  25 2.82
                            32 2.82
  31  0.997  0.336  0.656-  20 2.80  33 2.80  22 2.80  28 2.80  36 2.81  19 2.81  29 2.81  34 2.82
                            32 2.82
  32  0.331  0.337  0.666-  37 2.07  35 2.82  34 2.82  33 2.82  30 2.82  31 2.82  29 2.82  23 2.95
                            20 2.96  21 2.96
  33  0.665  0.336  0.656-  21 2.79  31 2.80  24 2.80  28 2.80  36 2.80  30 2.81  35 2.81  19 2.81
                            32 2.82
  34  0.997  0.671  0.656-  23 2.80  30 2.80  25 2.80  28 2.80  36 2.81  22 2.81  35 2.81  31 2.82
                            32 2.82
  35  0.331  0.670  0.656-  23 2.79  29 2.80  26 2.80  36 2.80  28 2.81  34 2.81  33 2.81  24 2.81
                            32 2.82
  36  0.664  0.670  0.656-  35 2.80  27 2.80  33 2.80  29 2.81  31 2.81  30 2.81  34 2.81  24 2.81
                            22 2.82
  37  0.330  0.338  0.761-  40 1.10  38 1.10  39 1.10  32 2.07
  38  0.187  0.415  0.776-  37 1.10
  39  0.396  0.195  0.777-  37 1.10
  40  0.407  0.405  0.776-  37 1.10
 
  LATTYP: Found a hexagonal cell.
 ALAT       =     8.4216417639
 C/A-ratio  =     2.5976219743
  
  Lattice vectors:
  
 A1 = (   4.2108208820,  -7.2933557091,   0.0000000000)
 A2 = (  -8.4216417639,   0.0000000000,   0.0000000000)
 A3 = (   0.0000000000,   0.0000000000, -21.8762417060)


Analysis of symmetry for initial positions (statically):
=====================================================================
 Subroutine PRICEL returns:
 Original cell was already a primitive cell.
 

 Routine SETGRP: Setting up the symmetry group for a 
 hexagonal supercell.


 Subroutine GETGRP returns: Found  1 space group operations
 (whereof  1 operations were pure point group operations)
 out of a pool of 24 trial point group operations.


The static configuration has the point symmetry C_1 .


Analysis of symmetry for dynamics (positions and initial velocities):
=====================================================================
 Subroutine PRICEL returns:
 Original cell was already a primitive cell.
 

 Routine SETGRP: Setting up the symmetry group for a 
 hexagonal supercell.


 Subroutine GETGRP returns: Found  1 space group operations
 (whereof  1 operations were pure point group operations)
 out of a pool of 24 trial point group operations.


The dynamic configuration has the point symmetry C_1 .


Analysis of constrained symmetry for selective dynamics:
=====================================================================
 Subroutine PRICEL returns:
 Original cell was already a primitive cell.
 

 Routine SETGRP: Setting up the symmetry group for a 
 hexagonal supercell.


 Subroutine GETGRP returns: Found  1 space group operations
 (whereof  1 operations were pure point group operations)
 out of a pool of 24 trial point group operations.


The constrained configuration has the point symmetry C_1 .
 
 
 KPOINTS: KPOINTS created by Atomic Simulation Env

Automatic generation of k-mesh.
Space group operators:
 irot       det(A)        alpha          n_x          n_y          n_z        tau_x        tau_y        tau_z
    1     1.000000     0.000000     1.000000     0.000000     0.000000     0.000000     0.000000     0.000000
 
 Subroutine IBZKPT returns following result:
 ===========================================
 
 Found     54 irreducible k-points:
 
 Following reciprocal coordinates:
            Coordinates               Weight
  0.083333  0.083333  0.000000     16.000000
  0.000000  0.083333  0.000000     16.000000
 -0.083333  0.000000  0.000000     16.000000
  0.250000  0.083333  0.000000     16.000000
  0.166667  0.250000  0.000000     16.000000
 -0.083333  0.166667  0.000000     16.000000
  0.166667 -0.083333  0.000000     16.000000
 -0.083333 -0.250000  0.000000     16.000000
 -0.250000 -0.166667  0.000000     16.000000
  0.416667  0.083333  0.000000     16.000000
  0.333333  0.416667  0.000000     16.000000
 -0.083333  0.333333  0.000000     16.000000
  0.333333 -0.083333  0.000000     16.000000
 -0.083333 -0.416667  0.000000     16.000000
 -0.416667 -0.333333  0.000000     16.000000
 -0.416667  0.083333  0.000000     16.000000
  0.500000 -0.416667  0.000000     16.000000
 -0.083333  0.500000  0.000000     16.000000
  0.500000 -0.083333  0.000000     16.000000
 -0.083333  0.416667  0.000000     16.000000
  0.416667  0.500000  0.000000     16.000000
 -0.250000  0.083333  0.000000     16.000000
 -0.333333 -0.250000  0.000000     16.000000
 -0.083333 -0.333333  0.000000     16.000000
 -0.333333 -0.083333  0.000000     16.000000
 -0.083333  0.250000  0.000000     16.000000
  0.250000  0.333333  0.000000     16.000000
 -0.083333  0.083333  0.000000     16.000000
 -0.166667 -0.083333  0.000000     16.000000
 -0.083333 -0.166667  0.000000     16.000000
  0.250000  0.250000  0.000000     16.000000
  0.000000  0.250000  0.000000     16.000000
 -0.250000  0.000000  0.000000     16.000000
  0.416667  0.250000  0.000000     16.000000
  0.166667  0.416667  0.000000     16.000000
 -0.250000  0.166667  0.000000     16.000000
  0.166667 -0.250000  0.000000     16.000000
 -0.250000 -0.416667  0.000000     16.000000
 -0.416667 -0.166667  0.000000     16.000000
 -0.416667  0.250000  0.000000     16.000000
  0.333333 -0.416667  0.000000     16.000000
 -0.250000  0.333333  0.000000     16.000000
  0.333333 -0.250000  0.000000     16.000000
 -0.250000  0.416667  0.000000     16.000000
  0.416667 -0.333333  0.000000     16.000000
 -0.250000  0.250000  0.000000     16.000000
  0.500000 -0.250000  0.000000     16.000000
 -0.250000  0.500000  0.000000     16.000000
  0.416667  0.416667  0.000000     16.000000
  0.000000  0.416667  0.000000     16.000000
 -0.416667 -0.000000  0.000000     16.000000
 -0.416667  0.416667  0.000000     16.000000
  0.166667 -0.416667  0.000000     16.000000
 -0.416667  0.166667  0.000000     16.000000
 
 Following cartesian coordinates:
            Coordinates               Weight
  0.009895  0.005713  0.000000     16.000000
  0.000000  0.011426  0.000000     16.000000
 -0.009895  0.005713  0.000000     16.000000
  0.029685 -0.005713  0.000000     16.000000
  0.019790  0.022852  0.000000     16.000000
 -0.009895  0.028565  0.000000     16.000000
  0.019790 -0.022852  0.000000     16.000000
 -0.009895 -0.028565  0.000000     16.000000
 -0.029685 -0.005713  0.000000     16.000000
  0.049476 -0.017139  0.000000     16.000000
  0.039581  0.034278  0.000000     16.000000
 -0.009895  0.051417  0.000000     16.000000
  0.039581 -0.034278  0.000000     16.000000
 -0.009895 -0.051417  0.000000     16.000000
 -0.049476 -0.017139  0.000000     16.000000
 -0.049476  0.039991  0.000000     16.000000
  0.059371 -0.091407  0.000000     16.000000
 -0.009895  0.074269  0.000000     16.000000
  0.059371 -0.045704  0.000000     16.000000
 -0.009895  0.062843  0.000000     16.000000
  0.049476  0.039991  0.000000     16.000000
 -0.029685  0.028565  0.000000     16.000000
 -0.039581 -0.011426  0.000000     16.000000
 -0.009895 -0.039991  0.000000     16.000000
 -0.039581  0.011426  0.000000     16.000000
 -0.009895  0.039991  0.000000     16.000000
  0.029685  0.028565  0.000000     16.000000
 -0.009895  0.017139  0.000000     16.000000
 -0.019790  0.000000  0.000000     16.000000
 -0.009895 -0.017139  0.000000     16.000000
  0.029685  0.017139  0.000000     16.000000
  0.000000  0.034278  0.000000     16.000000
 -0.029685  0.017139  0.000000     16.000000
  0.049476  0.005713  0.000000     16.000000
  0.019790  0.045704  0.000000     16.000000
 -0.029685  0.039991  0.000000     16.000000
  0.019790 -0.045704  0.000000     16.000000
 -0.029685 -0.039991  0.000000     16.000000
 -0.049476  0.005713  0.000000     16.000000
 -0.049476  0.062843  0.000000     16.000000
  0.039581 -0.079981  0.000000     16.000000
 -0.029685  0.062843  0.000000     16.000000
  0.039581 -0.057130  0.000000     16.000000
 -0.029685  0.074269  0.000000     16.000000
  0.049476 -0.074269  0.000000     16.000000
 -0.029685  0.051417  0.000000     16.000000
  0.059371 -0.068556  0.000000     16.000000
 -0.029685  0.085694  0.000000     16.000000
  0.049476  0.028565  0.000000     16.000000
  0.000000  0.057130  0.000000     16.000000
 -0.049476  0.028565  0.000000     16.000000
 -0.049476  0.085694  0.000000     16.000000
  0.019790 -0.068556  0.000000     16.000000
 -0.049476  0.051417  0.000000     16.000000
 


--------------------------------------------------------------------------------------------------------




 Dimension of arrays:
   k-points           NKPTS =     54   k-points in BZ     NKDIM =     54   number of bands    NBANDS=    220
   number of dos      NEDOS =    301   number of ions     NIONS =     40
   non local maximal  LDIM  =      6   non local SUM 2l+1 LMDIM =     18
   total plane-waves  NPLWV = 190512
   max r-space proj   IRMAX =   2088   max aug-charges    IRDMAX=   8786
   dimension x,y,z NGX =    42 NGY =   42 NGZ =  108
   dimension x,y,z NGXF=    84 NGYF=   84 NGZF=  216
   support grid    NGXF=    84 NGYF=   84 NGZF=  216
   ions per type =              36   1   3
 NGX,Y,Z   is equivalent  to a cutoff of   8.29,  8.29,  8.21 a.u.
 NGXF,Y,Z  is equivalent  to a cutoff of  16.58, 16.58, 16.41 a.u.


 I would recommend the setting:
   dimension x,y,z NGX =    41 NGY =   41 NGZ =  107
 SYSTEM =  unknown system                          
 POSCAR =  Pt  C  H                                

 Startparameter for this run:
   NWRITE =      2    write-flag & timer
   PREC   = normal    normal or accurate (medium, high low for compatibility)
   ISTART =      0    job   : 0-new  1-cont  2-samecut
   ICHARG =      2    charge: 1-file 2-atom 10-const
   ISPIN  =      1    spin polarized calculation?
   LNONCOLLINEAR =      F non collinear calculations
   LSORBIT =      F    spin-orbit coupling
   INIWAV =      1    electr: 0-lowe 1-rand  2-diag
   LASPH  =      F    aspherical Exc in radial PAW
   METAGGA=      F    non-selfconsistent MetaGGA calc.

 Electronic Relaxation 1
   ENCUT  =  400.0 eV  29.40 Ry    5.42 a.u.  13.73 13.73 35.67*2*pi/ulx,y,z
   ENINI  =  400.0     initial cutoff
   ENAUG  =  644.9 eV  augmentation charge cutoff
   NELM   =     60;   NELMIN=  4; NELMDL= -4     # of ELM steps 
   EDIFF  = 0.1E-05   stopping-criterion for ELM
   LREAL  =      T    real-space projection
   NLSPLINE    = F    spline interpolate recip. space projectors
   LCOMPAT=      F    compatible to vasp.4.4
   GGA_COMPAT  = T    GGA compatible to vasp.4.4-vasp.4.6
   LMAXPAW     = -100 max onsite density
   LMAXMIX     =    2 max onsite mixed and CHGCAR
   VOSKOWN=      0    Vosko Wilk Nusair interpolation
   ROPT   =   -0.00050  -0.00050  -0.00050
 Ionic relaxation
   EDIFFG = 0.1E-04   stopping-criterion for IOM
   NSW    =      0    number of steps for IOM
   NBLOCK =      1;   KBLOCK =      1    inner block; outer block 
   IBRION =     -1    ionic relax: 0-MD 1-quasi-New 2-CG
   NFREE  =      0    steps in history (QN), initial steepest desc. (CG)
   ISIF   =      2    stress and relaxation
   IWAVPR =     10    prediction:  0-non 1-charg 2-wave 3-comb
   ISYM   =      2    0-nonsym 1-usesym 2-fastsym
   LCORR  =      T    Harris-Foulkes like correction to forces

   POTIM  = 0.5000    time-step for ionic-motion
   TEIN   =    0.0    initial temperature
   TEBEG  =    0.0;   TEEND  =   0.0 temperature during run
   SMASS  =  -3.00    Nose mass-parameter (am)
   estimated Nose-frequenzy (Omega)   =  0.10E-29 period in steps =****** mass=  -0.162E-26a.u.
   SCALEE = 1.0000    scale energy and forces
   NPACO  =    256;   APACO  = 16.0  distance and # of slots for P.C.
   PSTRESS=    0.0 pullay stress

  Mass of Ions in am
   POMASS = 195.08 12.01  1.00
  Ionic Valenz
   ZVAL   =  10.00  4.00  1.00
  Atomic Wigner-Seitz radii
   RWIGS  =  -1.00 -1.00 -1.00
  virtual crystal weights 
   VCA    =   1.00  1.00  1.00
   NELECT =     367.0000    total number of electrons
   NUPDOWN=      -1.0000    fix difference up-down

 DOS related values:
   EMIN   =  10.00;   EMAX   =-10.00  energy-range for DOS
   EFERMI =   0.00
   ISMEAR =    -1;   SIGMA  =   0.10  broadening in eV -4-tet -1-fermi 0-gaus

 Electronic relaxation 2 (details)
   IALGO  =     68    algorithm
   LDIAG  =      T    sub-space diagonalisation (order eigenvalues)
   LSUBROT=      F    optimize rotation matrix (better conditioning)
   TURBO    =      0    0=normal 1=particle mesh
   IRESTART =      0    0=no restart 2=restart with 2 vectors
   NREBOOT  =      0    no. of reboots
   NMIN     =      0    reboot dimension
   EREF     =   0.00    reference energy to select bands
   IMIX   =      4    mixing-type and parameters
     AMIX     =   0.40;   BMIX     =  1.00
     AMIX_MAG =   1.60;   BMIX_MAG =  1.00
     AMIN     =   0.10
     WC   =   100.;   INIMIX=   1;  MIXPRE=   1;  MAXMIX= -45

 Intra band minimization:
   WEIMIN = 0.0000     energy-eigenvalue tresh-hold
   EBREAK =  0.11E-08  absolut break condition
   DEPER  =   0.30     relativ break condition  

   TIME   =   0.40     timestep for ELM

  volume/ion in A,a.u.               =      33.59       226.69
  Fermi-wavevector in a.u.,A,eV,Ry     =   1.062179  2.007228 15.350436  1.128225
  Thomas-Fermi vector in A             =   2.197621
 
 Write flags
   LWAVE  =      F    write WAVECAR
   LCHARG =      F    write CHGCAR
   LVTOT  =      F    write LOCPOT, total local potential
   LVHAR  =      F    write LOCPOT, Hartree potential only
   LELF   =      F    write electronic localiz. function (ELF)
   LORBIT =      0    0 simple, 1 ext, 2 COOP (PROOUT)


 Dipole corrections
   LMONO  =      F    monopole corrections only (constant potential shift)
   LDIPOL =      F    correct potential (dipole corrections)
   IDIPOL =      0    1-x, 2-y, 3-z, 4-all directions 
   EPSILON=  1.0000000 bulk dielectric constant

 Exchange correlation treatment:
   GGA     =    PE    GGA type
   LEXCH   =     8    internal setting for exchange type
   VOSKOWN=      0    Vosko Wilk Nusair interpolation
   LHFCALC =     F    Hartree Fock is set to
   LHFONE  =     F    Hartree Fock one center treatment
   AEXX    =    0.0000 exact exchange contribution

 Linear response parameters
   LEPSILON=     F    determine dielectric tensor
   LRPA    =     F    only Hartree local field effects (RPA)
   LNABLA  =     F    use nabla operator in PAW spheres
   LVEL    =     F    velocity operator in full k-point grid
   LINTERFAST=   F  fast interpolation
   KINTER  =     0    interpolate to denser k-point grid
   CSHIFT  =0.1000    complex shift for real part using Kramers Kronig
   OMEGAMAX=  -1.0    maximum frequency
   DEG_THRESHOLD= 0.2000000E-02 threshold for treating states as degnerate
   RTIME   =    0.100 relaxation time in fs

 Orbital magnetization related:
   ORBITALMAG=     F  switch on orbital magnetization
   LCHIMAG   =     F  perturbation theory with respect to B field
   DQ        =  0.001000  dq finite difference perturbation B field



--------------------------------------------------------------------------------------------------------


 Static calculation
 charge density and potential will be updated during run
 non-spin polarized calculation
 RMM-DIIS sequential band-by-band and
  variant of blocked Davidson during initial phase
 perform sub-space diagonalisation
    before iterative eigenvector-optimisation
 modified Broyden-mixing scheme, WC =      100.0
 initial mixing is a Kerker type mixing with AMIX =  0.4000 and BMIX =      1.0000
 Hartree-type preconditioning will be used
 using additional bands           36
 real space projection scheme for non local part
 use partial core corrections
 calculate Harris-corrections to forces 
   (improved forces if not selfconsistent)
 use gradient corrections 
 use of overlap-Matrix (Vanderbilt PP)
 Fermi-smearing in eV        SIGMA  =   0.10


--------------------------------------------------------------------------------------------------------


  energy-cutoff  :      400.00
  volume of cell :     1343.68
      direct lattice vectors                 reciprocal lattice vectors
     8.421641764  0.000000000  0.000000000     0.118741693 -0.068555548  0.000000000
     4.210820882  7.293355709  0.000000000     0.000000000  0.137111097  0.000000000
     0.000000000  0.000000000 21.876241706     0.000000000  0.000000000  0.045711691

  length of vectors
     8.421641764  8.421641764 21.876241706     0.137111097  0.137111097  0.045711691


 
 k-points in units of 2pi/SCALE and weight: KPOINTS created by Atomic Simulation Env
   0.00989514  0.00571296  0.00000000       0.019
   0.00000000  0.01142592  0.00000000       0.019
  -0.00989514  0.00571296  0.00000000       0.019
   0.02968542 -0.00571296  0.00000000       0.019
   0.01979028  0.02285185  0.00000000       0.019
  -0.00989514  0.02856481  0.00000000       0.019
   0.01979028 -0.02285185  0.00000000       0.019
  -0.00989514 -0.02856481  0.00000000       0.019
  -0.02968542 -0.00571296  0.00000000       0.019
   0.04947571 -0.01713889  0.00000000       0.019
   0.03958056  0.03427777  0.00000000       0.019
  -0.00989514  0.05141666  0.00000000       0.019
   0.03958056 -0.03427777  0.00000000       0.019
  -0.00989514 -0.05141666  0.00000000       0.019
  -0.04947571 -0.01713889  0.00000000       0.019
  -0.04947571  0.03999074  0.00000000       0.019
   0.05937085 -0.09140740  0.00000000       0.019
  -0.00989514  0.07426851  0.00000000       0.019
   0.05937085 -0.04570370  0.00000000       0.019
  -0.00989514  0.06284259  0.00000000       0.019
   0.04947571  0.03999074  0.00000000       0.019
  -0.02968542  0.02856481  0.00000000       0.019
  -0.03958056 -0.01142592  0.00000000       0.019
  -0.00989514 -0.03999074  0.00000000       0.019
  -0.03958056  0.01142592  0.00000000       0.019
  -0.00989514  0.03999074  0.00000000       0.019
   0.02968542  0.02856481  0.00000000       0.019
  -0.00989514  0.01713889  0.00000000       0.019
  -0.01979028  0.00000000  0.00000000       0.019
  -0.00989514 -0.01713889  0.00000000       0.019
   0.02968542  0.01713889  0.00000000       0.019
   0.00000000  0.03427777  0.00000000       0.019
  -0.02968542  0.01713889  0.00000000       0.019
   0.04947571  0.00571296  0.00000000       0.019
   0.01979028  0.04570370  0.00000000       0.019
  -0.02968542  0.03999074  0.00000000       0.019
   0.01979028 -0.04570370  0.00000000       0.019
  -0.02968542 -0.03999074  0.00000000       0.019
  -0.04947571  0.00571296  0.00000000       0.019
  -0.04947571  0.06284259  0.00000000       0.019
   0.03958056 -0.07998147  0.00000000       0.019
  -0.02968542  0.06284259  0.00000000       0.019
   0.03958056 -0.05712962  0.00000000       0.019
  -0.02968542  0.07426851  0.00000000       0.019
   0.04947571 -0.07426851  0.00000000       0.019
  -0.02968542  0.05141666  0.00000000       0.019
   0.05937085 -0.06855555  0.00000000       0.019
  -0.02968542  0.08569444  0.00000000       0.019
   0.04947571  0.02856481  0.00000000       0.019
   0.00000000  0.05712962  0.00000000       0.019
  -0.04947571  0.02856481  0.00000000       0.019
  -0.04947571  0.08569444  0.00000000       0.019
   0.01979028 -0.06855555  0.00000000       0.019
  -0.04947571  0.05141666  0.00000000       0.019
 
 k-points in reciprocal lattice and weights: KPOINTS created by Atomic Simulation Env
   0.08333333  0.08333333  0.00000000       0.019
   0.00000000  0.08333333  0.00000000       0.019
  -0.08333333  0.00000000  0.00000000       0.019
   0.25000000  0.08333333  0.00000000       0.019
   0.16666667  0.25000000  0.00000000       0.019
  -0.08333333  0.16666667  0.00000000       0.019
   0.16666667 -0.08333333  0.00000000       0.019
  -0.08333333 -0.25000000  0.00000000       0.019
  -0.25000000 -0.16666667  0.00000000       0.019
   0.41666667  0.08333333  0.00000000       0.019
   0.33333333  0.41666667  0.00000000       0.019
  -0.08333333  0.33333333  0.00000000       0.019
   0.33333333 -0.08333333  0.00000000       0.019
  -0.08333333 -0.41666667  0.00000000       0.019
  -0.41666667 -0.33333333  0.00000000       0.019
  -0.41666667  0.08333333  0.00000000       0.019
   0.50000000 -0.41666667  0.00000000       0.019
  -0.08333333  0.50000000  0.00000000       0.019
   0.50000000 -0.08333333  0.00000000       0.019
  -0.08333333  0.41666667  0.00000000       0.019
   0.41666667  0.50000000  0.00000000       0.019
  -0.25000000  0.08333333  0.00000000       0.019
  -0.33333333 -0.25000000  0.00000000       0.019
  -0.08333333 -0.33333333  0.00000000       0.019
  -0.33333333 -0.08333333  0.00000000       0.019
  -0.08333333  0.25000000  0.00000000       0.019
   0.25000000  0.33333333  0.00000000       0.019
  -0.08333333  0.08333333  0.00000000       0.019
  -0.16666667 -0.08333333  0.00000000       0.019
  -0.08333333 -0.16666667  0.00000000       0.019
   0.25000000  0.25000000  0.00000000       0.019
   0.00000000  0.25000000  0.00000000       0.019
  -0.25000000  0.00000000  0.00000000       0.019
   0.41666667  0.25000000  0.00000000       0.019
   0.16666667  0.41666667  0.00000000       0.019
  -0.25000000  0.16666667  0.00000000       0.019
   0.16666667 -0.25000000  0.00000000       0.019
  -0.25000000 -0.41666667  0.00000000       0.019
  -0.41666667 -0.16666667  0.00000000       0.019
  -0.41666667  0.25000000  0.00000000       0.019
   0.33333333 -0.41666667  0.00000000       0.019
  -0.25000000  0.33333333  0.00000000       0.019
   0.33333333 -0.25000000  0.00000000       0.019
  -0.25000000  0.41666667  0.00000000       0.019
   0.41666667 -0.33333333  0.00000000       0.019
  -0.25000000  0.25000000  0.00000000       0.019
   0.50000000 -0.25000000  0.00000000       0.019
  -0.25000000  0.50000000  0.00000000       0.019
   0.41666667  0.41666667  0.00000000       0.019
   0.00000000  0.41666667  0.00000000       0.019
  -0.41666667 -0.00000000  0.00000000       0.019
  -0.41666667  0.41666667  0.00000000       0.019
   0.16666667 -0.41666667  0.00000000       0.019
  -0.41666667  0.16666667  0.00000000       0.019
 
 position of ions in fractional coordinates (direct lattice) 
   0.00000000  0.00000000  0.34283768
   0.33333333  0.00000000  0.34283768
   0.66666667  0.00000000  0.34283768
   0.00000000  0.33333333  0.34283768
   0.33333333  0.33333333  0.34283768
   0.66666667  0.33333333  0.34283768
   0.00000000  0.66666667  0.34283768
   0.33333333  0.66666667  0.34283768
   0.66666667  0.66666667  0.34283768
   0.11111111  0.11111111  0.44761256
   0.44444444  0.11111111  0.44761256
   0.77777778  0.11111111  0.44761256
   0.11111111  0.44444444  0.44761256
   0.44444444  0.44444444  0.44761256
   0.77777778  0.44444444  0.44761256
   0.11111111  0.77777778  0.44761256
   0.44444444  0.77777778  0.44761256
   0.77777778  0.77777778  0.44761256
   0.88768084  0.22385623  0.55081838
   0.22262956  0.22485013  0.55255386
   0.55180616  0.22498746  0.55242940
   0.88806903  0.55698725  0.55095161
   0.22251655  0.55442027  0.55251907
   0.55435930  0.55695372  0.55099908
   0.88776732  0.89045419  0.55081174
   0.22116943  0.89038639  0.55088887
   0.55435864  0.89057582  0.55098278
   0.99729754  0.00322725  0.65598427
   0.33054062  0.00277141  0.65587566
   0.66466105  0.00284145  0.65585100
   0.99683920  0.33636318  0.65583676
   0.33065584  0.33678897  0.66602411
   0.66479558  0.33641287  0.65584196
   0.99692766  0.67061464  0.65583456
   0.33077588  0.67048493  0.65584563
   0.66396198  0.66983993  0.65594963
   0.33009546  0.33804416  0.76084461
   0.18706160  0.41492418  0.77628546
   0.39631787  0.19531640  0.77663768
   0.40664852  0.40465297  0.77617188
 
 position of ions in cartesian coordinates  (Angst):
   0.00000000  0.00000000  7.50000000
   2.80721392  0.00000000  7.50000000
   5.61442784  0.00000000  7.50000000
   1.40360696  2.43111857  7.50000000
   4.21082088  2.43111857  7.50000000
   7.01803480  2.43111857  7.50000000
   2.80721392  4.86223714  7.50000000
   5.61442784  4.86223714  7.50000000
   8.42164176  4.86223714  7.50000000
   1.40360696  0.81037286  9.79208057
   4.21082088  0.81037286  9.79208057
   7.01803480  0.81037286  9.79208057
   2.80721392  3.24149143  9.79208057
   5.61442784  3.24149143  9.79208057
   8.42164176  3.24149143  9.79208057
   4.21082088  5.67261000  9.79208057
   7.01803480  5.67261000  9.79208057
   9.82524872  5.67261000  9.79208057
   8.41834857  1.63266314 12.04983605
   2.82171005  1.63991196 12.08780185
   5.59449566  1.64091358 12.08507916
   9.82437276  4.06230617 12.05275061
   4.20851916  4.04358426 12.08704071
   7.01384774  4.06206158 12.05378904
  11.22600140  6.49439913 12.04969081
   5.61186732  6.49390463 12.05137803
   8.41866514  6.49528626 12.05343242
   8.41247200  0.02353750 14.35047046
   2.79536460  0.02021286 14.34809452
   5.60950214  0.02072372 14.34755505
   9.81138779  2.45321634 14.34724347
   4.20282309  2.45632175 14.57010437
   7.01524457  2.45357871 14.34735721
  11.21960574  4.89103108 14.34719544
   5.60896789  4.89008509 14.34743745
   8.41222591  4.88538088 14.34971264
   4.20338909  2.46547632 16.64442065
   3.32253719  3.02618967 16.98220832
   4.16008949  1.42451198 16.98991361
   5.12856931  2.95127805 16.97972364
 


--------------------------------------------------------------------------------------------------------


 k-point  1 :   0.0833 0.0833 0.0000  plane waves:   24413
 k-point  2 :   0.0000 0.0833 0.0000  plane waves:   24413
 k-point  3 :  -0.0833 0.0000 0.0000  plane waves:   24413
 k-point  4 :   0.2500 0.0833 0.0000  plane waves:   24407
 k-point  5 :   0.1667 0.2500 0.0000  plane waves:   24407
 k-point  6 :  -0.0833 0.1667 0.0000  plane waves:   24407
 k-point  7 :   0.1667-0.0833 0.0000  plane waves:   24407
 k-point  8 :  -0.0833-0.2500 0.0000  plane waves:   24407
 k-point  9 :  -0.2500-0.1667 0.0000  plane waves:   24407
 k-point 10 :   0.4167 0.0833 0.0000  plane waves:   24416
 k-point 11 :   0.3333 0.4167 0.0000  plane waves:   24416
 k-point 12 :  -0.0833 0.3333 0.0000  plane waves:   24416
 k-point 13 :   0.3333-0.0833 0.0000  plane waves:   24416
 k-point 14 :  -0.0833-0.4167 0.0000  plane waves:   24416
 k-point 15 :  -0.4167-0.3333 0.0000  plane waves:   24416
 k-point 16 :  -0.4167 0.0833 0.0000  plane waves:   24418
 k-point 17 :   0.5000-0.4167 0.0000  plane waves:   24418
 k-point 18 :  -0.0833 0.5000 0.0000  plane waves:   24418
 k-point 19 :   0.5000-0.0833 0.0000  plane waves:   24418
 k-point 20 :  -0.0833 0.4167 0.0000  plane waves:   24418
 k-point 21 :   0.4167 0.5000 0.0000  plane waves:   24418
 k-point 22 :  -0.2500 0.0833 0.0000  plane waves:   24416
 k-point 23 :  -0.3333-0.2500 0.0000  plane waves:   24416
 k-point 24 :  -0.0833-0.3333 0.0000  plane waves:   24416
 k-point 25 :  -0.3333-0.0833 0.0000  plane waves:   24416
 k-point 26 :  -0.0833 0.2500 0.0000  plane waves:   24416
 k-point 27 :   0.2500 0.3333 0.0000  plane waves:   24416
 k-point 28 :  -0.0833 0.0833 0.0000  plane waves:   24411
 k-point 29 :  -0.1667-0.0833 0.0000  plane waves:   24411
 k-point 30 :  -0.0833-0.1667 0.0000  plane waves:   24411
 k-point 31 :   0.2500 0.2500 0.0000  plane waves:   24440
 k-point 32 :   0.0000 0.2500 0.0000  plane waves:   24440
 k-point 33 :  -0.2500 0.0000 0.0000  plane waves:   24440
 k-point 34 :   0.4167 0.2500 0.0000  plane waves:   24406
 k-point 35 :   0.1667 0.4167 0.0000  plane waves:   24406
 k-point 36 :  -0.2500 0.1667 0.0000  plane waves:   24406
 k-point 37 :   0.1667-0.2500 0.0000  plane waves:   24406
 k-point 38 :  -0.2500-0.4167 0.0000  plane waves:   24406
 k-point 39 :  -0.4167-0.1667 0.0000  plane waves:   24406
 k-point 40 :  -0.4167 0.2500 0.0000  plane waves:   24402
 k-point 41 :   0.3333-0.4167 0.0000  plane waves:   24402
 k-point 42 :  -0.2500 0.3333 0.0000  plane waves:   24402
 k-point 43 :   0.3333-0.2500 0.0000  plane waves:   24402
 k-point 44 :  -0.2500 0.4167 0.0000  plane waves:   24402
 k-point 45 :   0.4167-0.3333 0.0000  plane waves:   24402
 k-point 46 :  -0.2500 0.2500 0.0000  plane waves:   24390
 k-point 47 :   0.5000-0.2500 0.0000  plane waves:   24390
 k-point 48 :  -0.2500 0.5000 0.0000  plane waves:   24390
 k-point 49 :   0.4167 0.4167 0.0000  plane waves:   24430
 k-point 50 :   0.0000 0.4167 0.0000  plane waves:   24430
 k-point 51 :  -0.4167-0.0000 0.0000  plane waves:   24430
 k-point 52 :  -0.4167 0.4167 0.0000  plane waves:   24404
 k-point 53 :   0.1667-0.4167 0.0000  plane waves:   24404
 k-point 54 :  -0.4167 0.1667 0.0000  plane waves:   24404

 maximum and minimum number of plane-waves per node :      6146     6048

 maximum number of plane-waves:     24440
 maximum index in each direction: 
   IXMAX=   14   IYMAX=   14   IZMAX=   35
   IXMIN=  -14   IYMIN=  -14   IZMIN=  -35

 WARNING: aliasing errors must be expected set NGX to  58 to avoid them
 WARNING: aliasing errors must be expected set NGY to  58 to avoid them
 WARNING: aliasing errors must be expected set NGZ to 142 to avoid them
 aliasing errors are usually negligible using standard VASP settings
 and one can safely disregard these warnings

 real space projection operators:
  total allocation   :      10224.80 KBytes
  max/ min on nodes  :       2698.15       2435.55


 parallel 3D FFT for wavefunctions:
    minimum data exchange during FFTs selected (reduces bandwidth)
 parallel 3D FFT for charge:
    minimum data exchange during FFTs selected (reduces bandwidth)


 total amount of memory used by VASP on root node   286532. kBytes
========================================================================

   base      :      30000. kBytes
   nonlr-proj:       4721. kBytes
   fftplans  :       4497. kBytes
   grid      :       7849. kBytes
   one-center:        155. kBytes
   wavefun   :     239310. kBytes
 
     INWAV:  cpu time    0.0000: real time    0.0000
 Broyden mixing: mesh for mixing (old mesh)
   NGX = 27   NGY = 27   NGZ = 71
  (NGX  = 84   NGY  = 84   NGZ  =216)
  gives a total of  51759 points

 initial charge density was supplied:
 charge density of overlapping atoms calculated
 number of electron     367.0000000 magnetization 
 keeping initial charge density in first step


--------------------------------------------------------------------------------------------------------


 Maximum index for non-local projection operator          591
 Maximum index for augmentation-charges          870 (set IRDMAX)


--------------------------------------------------------------------------------------------------------


 First call to EWALD:  gamma=   0.161
 Maximum number of real-space cells 4x 4x 2
 Maximum number of reciprocal cells 2x 2x 5

 FEWALD executed in parallel
    FEWALD:  cpu time    0.0030: real time    0.0032


----------------------------------------- Iteration    1(   1)  ---------------------------------------


    POTLOK:  cpu time    1.2588: real time    1.3482
    SETDIJ:  cpu time    0.0070: real time    0.0076
     EDDAV:  cpu time  133.5937: real time  134.6331
       DOS:  cpu time    0.0020: real time    0.0023
    --------------------------------------------
      LOOP:  cpu time  134.8635: real time  136.0414

 eigenvalue-minimisations  : 23850
 total energy-change (2. order) : 0.2178316E+04  (-0.1449929E+05)
 number of electron     367.0000000 magnetization 
 augmentation part      367.0000000 magnetization 

 Free energy of the ion-electron system (eV)
  ---------------------------------------------------
  alpha Z        PSCENC =       942.28241388
  Ewald energy   TEWEN  =     91938.07308661
  -Hartree energ DENC   =   -120212.05886931
  -exchange      EXHF   =         0.00000000
  -V(xc)+E(xc)   XCENC  =       141.07246399
  PAW double counting   =     25175.37140410   -24157.77078718
  entropy T*S    EENTRO =        -0.53936933
  eigenvalues    EBANDS =      1919.29207423
  atomic energy  EATOM  =     26432.59338697
  Solvation  Ediel_sol  =         0.00000000
  ---------------------------------------------------
  free energy    TOTEN  =      2178.31580395 eV

  energy without entropy =     2178.85517328  energy(sigma->0) =     2178.58548862


--------------------------------------------------------------------------------------------------------




----------------------------------------- Iteration    1(   2)  ---------------------------------------


     EDDAV:  cpu time  167.1306: real time  168.0556
       DOS:  cpu time    0.0040: real time    0.0032
    --------------------------------------------
      LOOP:  cpu time  167.1796: real time  168.1768

 eigenvalue-minimisations  : 27790
 total energy-change (2. order) :-0.2260043E+04  (-0.2098753E+04)
 number of electron     367.0000000 magnetization 
 augmentation part      367.0000000 magnetization 

 Free energy of the ion-electron system (eV)
  ---------------------------------------------------
  alpha Z        PSCENC =       942.28241388
  Ewald energy   TEWEN  =     91938.07308661
  -Hartree energ DENC   =   -120212.05886931
  -exchange      EXHF   =         0.00000000
  -V(xc)+E(xc)   XCENC  =       141.07246399
  PAW double counting   =     25175.37140410   -24157.77078718
  entropy T*S    EENTRO =        -1.03833388
  eigenvalues    EBANDS =      -340.25194431
  atomic energy  EATOM  =     26432.59338697
  Solvation  Ediel_sol  =         0.00000000
  ---------------------------------------------------
  free energy    TOTEN  =       -81.72717913 eV

  energy without entropy =      -80.68884525  energy(sigma->0) =      -81.20801219


--------------------------------------------------------------------------------------------------------




----------------------------------------- Iteration    1(   3)  ---------------------------------------


     EDDAV:  cpu time  166.0648: real time  166.7024
       DOS:  cpu time    0.0040: real time    0.0034
    --------------------------------------------
      LOOP:  cpu time  166.0728: real time  166.7429

 eigenvalue-minimisations  : 28600
 total energy-change (2. order) :-0.1580810E+03  (-0.1425499E+03)
 number of electron     367.0000000 magnetization 
 augmentation part      367.0000000 magnetization 

 Free energy of the ion-electron system (eV)
  ---------------------------------------------------
  alpha Z        PSCENC =       942.28241388
  Ewald energy   TEWEN  =     91938.07308661
  -Hartree energ DENC   =   -120212.05886931
  -exchange      EXHF   =         0.00000000
  -V(xc)+E(xc)   XCENC  =       141.07246399
  PAW double counting   =     25175.37140410   -24157.77078718
  entropy T*S    EENTRO =        -1.89265193
  eigenvalues    EBANDS =      -497.47867061
  atomic energy  EATOM  =     26432.59338697
  Solvation  Ediel_sol  =         0.00000000
  ---------------------------------------------------
  free energy    TOTEN  =      -239.80822348 eV

  energy without entropy =     -237.91557155  energy(sigma->0) =     -238.86189752


--------------------------------------------------------------------------------------------------------




----------------------------------------- Iteration    1(   4)  ---------------------------------------


     EDDAV:  cpu time  188.0544: real time  188.5338
       DOS:  cpu time    0.0030: real time    0.0031
    CHARGE:  cpu time    2.0477: real time    2.0469
    MIXING:  cpu time    0.0020: real time    0.0028
    --------------------------------------------
      LOOP:  cpu time  190.1081: real time  190.6219

 eigenvalue-minimisations  : 30120
 total energy-change (2. order) :-0.7044980E+01  (-0.6785636E+01)
 number of electron     366.9999983 magnetization 
 augmentation part      104.7908720 magnetization 

 Broyden mixing:
  rms(total) = 0.62405E+01    rms(broyden)= 0.62405E+01
  rms(prec ) = 0.63527E+01
  weight for this iteration     100.00

 Free energy of the ion-electron system (eV)
  ---------------------------------------------------
  alpha Z        PSCENC =       942.28241388
  Ewald energy   TEWEN  =     91938.07308661
  -Hartree energ DENC   =   -120212.05886931
  -exchange      EXHF   =         0.00000000
  -V(xc)+E(xc)   XCENC  =       141.07246399
  PAW double counting   =     25175.37140410   -24157.77078718
  entropy T*S    EENTRO =        -1.96021168
  eigenvalues    EBANDS =      -504.45609121
  atomic energy  EATOM  =     26432.59338697
  Solvation  Ediel_sol  =         0.00000000
  ---------------------------------------------------
  free energy    TOTEN  =      -246.85320383 eV

  energy without entropy =     -244.89299216  energy(sigma->0) =     -245.87309799


--------------------------------------------------------------------------------------------------------




----------------------------------------- Iteration    1(   5)  ---------------------------------------


    POTLOK:  cpu time    0.8399: real time    0.8694
    SETDIJ:  cpu time    0.0070: real time    0.0074
    EDDIAG:  cpu time   12.6291: real time   12.6483
  RMM-DIIS:  cpu time   46.3520: real time   46.8929
    ORTHCH:  cpu time    3.5395: real time    3.6023
       DOS:  cpu time    0.0040: real time    0.0033
    CHARGE:  cpu time    2.0027: real time    2.0024
    MIXING:  cpu time    0.0030: real time    0.0029
    --------------------------------------------
      LOOP:  cpu time   65.3781: real time   66.0535

 eigenvalue-minimisations  : 25200
 total energy-change (2. order) : 0.1133919E+02  (-0.5140341E+01)
 number of electron     366.9999999 magnetization 
 augmentation part      111.0034580 magnetization 

 Broyden mixing:
  rms(total) = 0.43716E+01    rms(broyden)= 0.43715E+01
  rms(prec ) = 0.46395E+01
  weight for this iteration     100.00

 eigenvalues of (default mixing * dielectric matrix)
  average eigenvalue GAMMA=   1.3201
  1.3201

 Free energy of the ion-electron system (eV)
  ---------------------------------------------------
  alpha Z        PSCENC =       942.28241388
  Ewald energy   TEWEN  =     91938.07308661
  -Hartree energ DENC   =   -119787.35990752
  -exchange      EXHF   =         0.00000000
  -V(xc)+E(xc)   XCENC  =       132.43062974
  PAW double counting   =     27932.81571797   -26967.72639366
  entropy T*S    EENTRO =        -2.09456451
  eigenvalues    EBANDS =      -856.52837935
  atomic energy  EATOM  =     26432.59338697
  Solvation  Ediel_sol  =         0.00000000
  ---------------------------------------------------
  free energy    TOTEN  =      -235.51400987 eV

  energy without entropy =     -233.41944536  energy(sigma->0) =     -234.46672761


--------------------------------------------------------------------------------------------------------




----------------------------------------- Iteration    1(   6)  ---------------------------------------


    POTLOK:  cpu time    0.0600: real time    0.0605
    SETDIJ:  cpu time    0.0080: real time    0.0075
    EDDIAG:  cpu time   13.1420: real time   13.1518
  RMM-DIIS:  cpu time   47.9617: real time   48.5646
    ORTHCH:  cpu time    3.7634: real time    3.8851
       DOS:  cpu time    0.0040: real time    0.0033
    CHARGE:  cpu time    2.0267: real time    2.0264
    MIXING:  cpu time    0.0030: real time    0.0029
    --------------------------------------------
      LOOP:  cpu time   66.9708: real time   67.7372

 eigenvalue-minimisations  : 25059
 total energy-change (2. order) :-0.4029449E+02  (-0.7804950E+01)
 number of electron     366.9999946 magnetization 
 augmentation part      109.3016193 magnetization 

 Broyden mixing:
  rms(total) = 0.55729E+01    rms(broyden)= 0.55728E+01
  rms(prec ) = 0.67559E+01
  weight for this iteration     100.00

 eigenvalues of (default mixing * dielectric matrix)
  average eigenvalue GAMMA=   1.1561
  2.0364  0.2758

 Free energy of the ion-electron system (eV)
  ---------------------------------------------------
  alpha Z        PSCENC =       942.28241388
  Ewald energy   TEWEN  =     91938.07308661
  -Hartree energ DENC   =   -120077.36134046
  -exchange      EXHF   =         0.00000000
  -V(xc)+E(xc)   XCENC  =       130.11976605
  PAW double counting   =     29846.22467042   -28902.01670457
  entropy T*S    EENTRO =        -1.21423338
  eigenvalues    EBANDS =      -584.50954915
  atomic energy  EATOM  =     26432.59338697
  Solvation  Ediel_sol  =         0.00000000
  ---------------------------------------------------
  free energy    TOTEN  =      -275.80850364 eV

  energy without entropy =     -274.59427026  energy(sigma->0) =     -275.20138695


--------------------------------------------------------------------------------------------------------




----------------------------------------- Iteration    1(   7)  ---------------------------------------


    POTLOK:  cpu time    0.1780: real time    0.3226
    SETDIJ:  cpu time    0.0080: real time    0.0075
    EDDIAG:  cpu time   13.3330: real time   13.4021
  RMM-DIIS:  cpu time   52.2971: real time   53.6896
    ORTHCH:  cpu time    3.8184: real time    3.9658
       DOS:  cpu time    0.0030: real time    0.0037
    CHARGE:  cpu time    1.9627: real time    2.0818
    MIXING:  cpu time    0.0030: real time    0.0031
    --------------------------------------------
      LOOP:  cpu time   71.6051: real time   73.5021

 eigenvalue-minimisations  : 24524
 total energy-change (2. order) : 0.4317377E+02  (-0.2503796E+01)
 number of electron     366.9999981 magnetization 
 augmentation part      112.6940793 magnetization 

 Broyden mixing:
  rms(total) = 0.16419E+01    rms(broyden)= 0.16418E+01
  rms(prec ) = 0.19888E+01
  weight for this iteration     100.00

 eigenvalues of (default mixing * dielectric matrix)
  average eigenvalue GAMMA=   1.0311
  2.0168  0.7671  0.3093

 Free energy of the ion-electron system (eV)
  ---------------------------------------------------
  alpha Z        PSCENC =       942.28241388
  Ewald energy   TEWEN  =     91938.07308661
  -Hartree energ DENC   =   -119816.15291639
  -exchange      EXHF   =         0.00000000
  -V(xc)+E(xc)   XCENC  =       128.62953973
  PAW double counting   =     31661.70226579   -30741.18794237
  entropy T*S    EENTRO =        -2.00865056
  eigenvalues    EBANDS =      -776.56591465
  atomic energy  EATOM  =     26432.59338697
  Solvation  Ediel_sol  =         0.00000000
  ---------------------------------------------------
  free energy    TOTEN  =      -232.63473099 eV

  energy without entropy =     -230.62608043  energy(sigma->0) =     -231.63040571


--------------------------------------------------------------------------------------------------------




----------------------------------------- Iteration    1(   8)  ---------------------------------------


    POTLOK:  cpu time    0.8059: real time    0.8056
    SETDIJ:  cpu time    0.0080: real time    0.0074
    EDDIAG:  cpu time   12.7571: real time   12.8186
  RMM-DIIS:  cpu time   45.8720: real time   46.2939
    ORTHCH:  cpu time    3.4315: real time    3.4427
       DOS:  cpu time    0.0030: real time    0.0032
    CHARGE:  cpu time    1.9797: real time    1.9785
    MIXING:  cpu time    0.0030: real time    0.0031
    --------------------------------------------
      LOOP:  cpu time   64.8611: real time   65.4739

 eigenvalue-minimisations  : 25191
 total energy-change (2. order) :-0.9291336E+01  (-0.1999249E+01)
 number of electron     366.9999984 magnetization 
 augmentation part      112.1065670 magnetization 

 Broyden mixing:
  rms(total) = 0.31724E+01    rms(broyden)= 0.31723E+01
  rms(prec ) = 0.46534E+01
  weight for this iteration     100.00

 eigenvalues of (default mixing * dielectric matrix)
  average eigenvalue GAMMA=   0.9068
  2.0766  1.0663  0.2939  0.1905

 Free energy of the ion-electron system (eV)
  ---------------------------------------------------
  alpha Z        PSCENC =       942.28241388
  Ewald energy   TEWEN  =     91938.07308661
  -Hartree energ DENC   =   -119814.88415065
  -exchange      EXHF   =         0.00000000
  -V(xc)+E(xc)   XCENC  =       129.44026262
  PAW double counting   =     31840.93221314   -30919.76725768
  entropy T*S    EENTRO =        -1.47440665
  eigenvalues    EBANDS =      -789.12161485
  atomic energy  EATOM  =     26432.59338697
  Solvation  Ediel_sol  =         0.00000000
  ---------------------------------------------------
  free energy    TOTEN  =      -241.92606661 eV

  energy without entropy =     -240.45165996  energy(sigma->0) =     -241.18886329


--------------------------------------------------------------------------------------------------------




----------------------------------------- Iteration    1(   9)  ---------------------------------------


    POTLOK:  cpu time    0.4909: real time    0.4914
    SETDIJ:  cpu time    0.0080: real time    0.0074
    EDDIAG:  cpu time   12.7741: real time   12.7723
  RMM-DIIS:  cpu time   47.2278: real time   47.9467
    ORTHCH:  cpu time    3.5175: real time    3.5399
       DOS:  cpu time    0.0030: real time    0.0032
    CHARGE:  cpu time    2.0227: real time    2.0530
    MIXING:  cpu time    0.0040: real time    0.0036
    --------------------------------------------
      LOOP:  cpu time   66.0490: real time   66.8516

 eigenvalue-minimisations  : 25410
 total energy-change (2. order) : 0.3396449E+01  (-0.5821956E+00)
 number of electron     366.9999966 magnetization 
 augmentation part      112.2212679 magnetization 

 Broyden mixing:
  rms(total) = 0.28159E+01    rms(broyden)= 0.28158E+01
  rms(prec ) = 0.41362E+01
  weight for this iteration     100.00

 eigenvalues of (default mixing * dielectric matrix)
  average eigenvalue GAMMA=   0.8049
  2.1704  1.1883  0.2760  0.2760  0.1137

 Free energy of the ion-electron system (eV)
  ---------------------------------------------------
  alpha Z        PSCENC =       942.28241388
  Ewald energy   TEWEN  =     91938.07308661
  -Hartree energ DENC   =   -119836.23290187
  -exchange      EXHF   =         0.00000000
  -V(xc)+E(xc)   XCENC  =       129.77382528
  PAW double counting   =     31984.81802782   -31064.00737253
  entropy T*S    EENTRO =        -1.70507172
  eigenvalues    EBANDS =      -764.12501213
  atomic energy  EATOM  =     26432.59338697
  Solvation  Ediel_sol  =         0.00000000
  ---------------------------------------------------
  free energy    TOTEN  =      -238.52961769 eV

  energy without entropy =     -236.82454597  energy(sigma->0) =     -237.67708183


--------------------------------------------------------------------------------------------------------




----------------------------------------- Iteration    1(  10)  ---------------------------------------


    POTLOK:  cpu time    0.0620: real time    0.0625
    SETDIJ:  cpu time    0.0080: real time    0.0076
    EDDIAG:  cpu time   12.6161: real time   12.6706
  RMM-DIIS:  cpu time   45.1161: real time   45.4211
    ORTHCH:  cpu time    3.3445: real time    3.3552
       DOS:  cpu time    0.0030: real time    0.0033
    CHARGE:  cpu time    1.9457: real time    1.9443
    MIXING:  cpu time    0.0030: real time    0.0033
    --------------------------------------------
      LOOP:  cpu time   63.1004: real time   63.5023

 eigenvalue-minimisations  : 24688
 total energy-change (2. order) : 0.8103412E+01  (-0.2838761E+00)
 number of electron     366.9999985 magnetization 
 augmentation part      112.0341604 magnetization 

 Broyden mixing:
  rms(total) = 0.92945E+00    rms(broyden)= 0.92934E+00
  rms(prec ) = 0.11469E+01
  weight for this iteration     100.00

 eigenvalues of (default mixing * dielectric matrix)
  average eigenvalue GAMMA=   0.7481
  2.1209  1.1396  0.4009  0.4009  0.3226  0.1034

 Free energy of the ion-electron system (eV)
  ---------------------------------------------------
  alpha Z        PSCENC =       942.28241388
  Ewald energy   TEWEN  =     91938.07308661
  -Hartree energ DENC   =   -119844.40198788
  -exchange      EXHF   =         0.00000000
  -V(xc)+E(xc)   XCENC  =       129.88919197
  PAW double counting   =     32147.65754652   -31228.11659443
  entropy T*S    EENTRO =        -2.11001675
  eigenvalues    EBANDS =      -746.29323270
  atomic energy  EATOM  =     26432.59338697
  Solvation  Ediel_sol  =         0.00000000
  ---------------------------------------------------
  free energy    TOTEN  =      -230.42620582 eV

  energy without entropy =     -228.31618908  energy(sigma->0) =     -229.37119745


--------------------------------------------------------------------------------------------------------




----------------------------------------- Iteration    1(  11)  ---------------------------------------


    POTLOK:  cpu time    0.4939: real time    0.4947
    SETDIJ:  cpu time    0.0080: real time    0.0076
    EDDIAG:  cpu time   12.8051: real time   12.8029
  RMM-DIIS:  cpu time   49.4385: real time   50.2843
    ORTHCH:  cpu time    3.8424: real time    4.0120
       DOS:  cpu time    0.0040: real time    0.0040
    CHARGE:  cpu time    2.0087: real time    2.0287
    MIXING:  cpu time    0.0040: real time    0.0038
    --------------------------------------------
      LOOP:  cpu time   68.6056: real time   69.6520

 eigenvalue-minimisations  : 25198
 total energy-change (2. order) : 0.6831203E+00  (-0.7990378E-01)
 number of electron     366.9999985 magnetization 
 augmentation part      112.0678450 magnetization 

 Broyden mixing:
  rms(total) = 0.49145E+00    rms(broyden)= 0.49143E+00
  rms(prec ) = 0.55982E+00
  weight for this iteration     100.00

 eigenvalues of (default mixing * dielectric matrix)
  average eigenvalue GAMMA=   0.7282
  2.1173  1.0645  0.5944  0.5944  0.3117  0.3117  0.1033

 Free energy of the ion-electron system (eV)
  ---------------------------------------------------
  alpha Z        PSCENC =       942.28241388
  Ewald energy   TEWEN  =     91938.07308661
  -Hartree energ DENC   =   -119845.94257262
  -exchange      EXHF   =         0.00000000
  -V(xc)+E(xc)   XCENC  =       129.88246438
  PAW double counting   =     32097.57400837   -31177.85243275
  entropy T*S    EENTRO =        -2.14848911
  eigenvalues    EBANDS =      -744.20495128
  atomic energy  EATOM  =     26432.59338697
  Solvation  Ediel_sol  =         0.00000000
  ---------------------------------------------------
  free energy    TOTEN  =      -229.74308556 eV

  energy without entropy =     -227.59459645  energy(sigma->0) =     -228.66884101


--------------------------------------------------------------------------------------------------------




----------------------------------------- Iteration    1(  12)  ---------------------------------------


    POTLOK:  cpu time    0.0650: real time    0.0654
    SETDIJ:  cpu time    0.0080: real time    0.0076
    EDDIAG:  cpu time   13.1640: real time   13.1843
  RMM-DIIS:  cpu time   48.2327: real time   48.6496
    ORTHCH:  cpu time    3.7884: real time    3.8344
       DOS:  cpu time    0.0040: real time    0.0034
    CHARGE:  cpu time    2.0207: real time    2.0199
    MIXING:  cpu time    0.0040: real time    0.0042
    --------------------------------------------
      LOOP:  cpu time   67.2878: real time   67.8018

 eigenvalue-minimisations  : 26135
 total energy-change (2. order) : 0.1045493E+00  (-0.2688451E-01)
 number of electron     366.9999984 magnetization 
 augmentation part      112.0834228 magnetization 

 Broyden mixing:
  rms(total) = 0.34244E+00    rms(broyden)= 0.34242E+00
  rms(prec ) = 0.38742E+00
  weight for this iteration     100.00

 eigenvalues of (default mixing * dielectric matrix)
  average eigenvalue GAMMA=   0.7385
  2.1567  1.0482  0.8344  0.8344  0.3297  0.3297  0.2714  0.1034

 Free energy of the ion-electron system (eV)
  ---------------------------------------------------
  alpha Z        PSCENC =       942.28241388
  Ewald energy   TEWEN  =     91938.07308661
  -Hartree energ DENC   =   -119850.02575190
  -exchange      EXHF   =         0.00000000
  -V(xc)+E(xc)   XCENC  =       129.88813675
  PAW double counting   =     32082.51546578   -31162.85560717
  entropy T*S    EENTRO =        -2.15442694
  eigenvalues    EBANDS =      -739.95524021
  atomic energy  EATOM  =     26432.59338697
  Solvation  Ediel_sol  =         0.00000000
  ---------------------------------------------------
  free energy    TOTEN  =      -229.63853624 eV

  energy without entropy =     -227.48410930  energy(sigma->0) =     -228.56132277


--------------------------------------------------------------------------------------------------------




----------------------------------------- Iteration    1(  13)  ---------------------------------------


    POTLOK:  cpu time    0.6969: real time    0.8916
    SETDIJ:  cpu time    0.0080: real time    0.0074
    EDDIAG:  cpu time   13.4300: real time   13.4297
  RMM-DIIS:  cpu time   51.5432: real time   51.6858
    ORTHCH:  cpu time    3.7434: real time    3.7835
       DOS:  cpu time    0.0030: real time    0.0033
    CHARGE:  cpu time    2.0567: real time    2.0555
    MIXING:  cpu time    0.0040: real time    0.0040
    --------------------------------------------
      LOOP:  cpu time   71.4861: real time   71.9280

 eigenvalue-minimisations  : 25658
 total energy-change (2. order) : 0.4941639E-01  (-0.1011922E-01)
 number of electron     366.9999985 magnetization 
 augmentation part      112.0629680 magnetization 

 Broyden mixing:
  rms(total) = 0.18848E+00    rms(broyden)= 0.18846E+00
  rms(prec ) = 0.21072E+00
  weight for this iteration     100.00

 eigenvalues of (default mixing * dielectric matrix)
  average eigenvalue GAMMA=   0.7532
  2.1764  1.0679  1.0126  1.0126  0.5040  0.3253  0.3253  0.1034  0.2512

 Free energy of the ion-electron system (eV)
  ---------------------------------------------------
  alpha Z        PSCENC =       942.28241388
  Ewald energy   TEWEN  =     91938.07308661
  -Hartree energ DENC   =   -119857.63452286
  -exchange      EXHF   =         0.00000000
  -V(xc)+E(xc)   XCENC  =       129.92729406
  PAW double counting   =     32085.15351700   -31165.66836452
  entropy T*S    EENTRO =        -2.15198640
  eigenvalues    EBANDS =      -732.16394460
  atomic energy  EATOM  =     26432.59338697
  Solvation  Ediel_sol  =         0.00000000
  ---------------------------------------------------
  free energy    TOTEN  =      -229.58911985 eV

  energy without entropy =     -227.43713345  energy(sigma->0) =     -228.51312665


--------------------------------------------------------------------------------------------------------




----------------------------------------- Iteration    1(  14)  ---------------------------------------


    POTLOK:  cpu time    0.9509: real time    0.9513
    SETDIJ:  cpu time    0.0080: real time    0.0076
    EDDIAG:  cpu time   12.8750: real time   12.9551
  RMM-DIIS:  cpu time   46.8709: real time   47.1840
    ORTHCH:  cpu time    3.6924: real time    3.6929
       DOS:  cpu time    0.0040: real time    0.0037
    CHARGE:  cpu time    2.0227: real time    2.0219
    MIXING:  cpu time    0.0040: real time    0.0047
    --------------------------------------------
      LOOP:  cpu time   66.4289: real time   66.8645

 eigenvalue-minimisations  : 25072
 total energy-change (2. order) : 0.1457890E-01  (-0.5049975E-02)
 number of electron     366.9999983 magnetization 
 augmentation part      112.0327096 magnetization 

 Broyden mixing:
  rms(total) = 0.10831E+00    rms(broyden)= 0.10830E+00
  rms(prec ) = 0.12224E+00
  weight for this iteration     100.00

 eigenvalues of (default mixing * dielectric matrix)
  average eigenvalue GAMMA=   0.7946
  1.8945  1.8945  1.1357  0.8433  0.8433  0.1034  0.3284  0.3284  0.3351  0.2392

 Free energy of the ion-electron system (eV)
  ---------------------------------------------------
  alpha Z        PSCENC =       942.28241388
  Ewald energy   TEWEN  =     91938.07308661
  -Hartree energ DENC   =   -119866.49454225
  -exchange      EXHF   =         0.00000000
  -V(xc)+E(xc)   XCENC  =       129.98040400
  PAW double counting   =     32077.85979493   -31158.35489359
  entropy T*S    EENTRO =        -2.14958397
  eigenvalues    EBANDS =      -723.36460753
  atomic energy  EATOM  =     26432.59338697
  Solvation  Ediel_sol  =         0.00000000
  ---------------------------------------------------
  free energy    TOTEN  =      -229.57454095 eV

  energy without entropy =     -227.42495698  energy(sigma->0) =     -228.49974897


--------------------------------------------------------------------------------------------------------




----------------------------------------- Iteration    1(  15)  ---------------------------------------


    POTLOK:  cpu time    1.6797: real time    1.6796
    SETDIJ:  cpu time    0.1530: real time    0.1523
    EDDIAG:  cpu time   14.2948: real time   14.4871
  RMM-DIIS:  cpu time   52.6480: real time   53.0581
    ORTHCH:  cpu time    3.9964: real time    3.9958
       DOS:  cpu time    0.0040: real time    0.0039
    CHARGE:  cpu time    1.9737: real time    1.9728
    MIXING:  cpu time    0.0040: real time    0.0047
    --------------------------------------------
      LOOP:  cpu time   74.7546: real time   75.3940

 eigenvalue-minimisations  : 25439
 total energy-change (2. order) : 0.6635721E-02  (-0.1656560E-02)
 number of electron     366.9999983 magnetization 
 augmentation part      112.0053100 magnetization 

 Broyden mixing:
  rms(total) = 0.65149E-01    rms(broyden)= 0.65145E-01
  rms(prec ) = 0.72591E-01
  weight for this iteration     100.00

 eigenvalues of (default mixing * dielectric matrix)
  average eigenvalue GAMMA=   0.8267
  2.2873  2.2873  1.1935  0.8155  0.8155  0.1034  0.3793  0.3306  0.3306  0.3089
  0.2415

 Free energy of the ion-electron system (eV)
  ---------------------------------------------------
  alpha Z        PSCENC =       942.28241388
  Ewald energy   TEWEN  =     91938.07308661
  -Hartree energ DENC   =   -119875.24596938
  -exchange      EXHF   =         0.00000000
  -V(xc)+E(xc)   XCENC  =       130.05294905
  PAW double counting   =     32047.68751020   -31127.89605512
  entropy T*S    EENTRO =        -2.14718102
  eigenvalues    EBANDS =      -714.96804642
  atomic energy  EATOM  =     26432.59338697
  Solvation  Ediel_sol  =         0.00000000
  ---------------------------------------------------
  free energy    TOTEN  =      -229.56790523 eV

  energy without entropy =     -227.42072421  energy(sigma->0) =     -228.49431472


--------------------------------------------------------------------------------------------------------




----------------------------------------- Iteration    1(  16)  ---------------------------------------


    POTLOK:  cpu time    1.5098: real time    1.5093
    SETDIJ:  cpu time    0.0080: real time    0.0076
    EDDIAG:  cpu time   12.5191: real time   12.5580
  RMM-DIIS:  cpu time   46.8369: real time   47.1495
    ORTHCH:  cpu time    3.5405: real time    3.5419
       DOS:  cpu time    0.0030: real time    0.0034
    CHARGE:  cpu time    1.9917: real time    1.9907
    MIXING:  cpu time    0.0040: real time    0.0046
    --------------------------------------------
      LOOP:  cpu time   66.4159: real time   66.8630

 eigenvalue-minimisations  : 25656
 total energy-change (2. order) : 0.2632563E-02  (-0.4301651E-03)
 number of electron     366.9999983 magnetization 
 augmentation part      111.9986905 magnetization 

 Broyden mixing:
  rms(total) = 0.33420E-01    rms(broyden)= 0.33418E-01
  rms(prec ) = 0.41834E-01
  weight for this iteration     100.00

 eigenvalues of (default mixing * dielectric matrix)
  average eigenvalue GAMMA=   0.8305
  2.4484  2.4484  1.2287  0.8331  0.8331  0.5181  0.1034  0.3873  0.3217  0.3217
  0.2842  0.2380

 Free energy of the ion-electron system (eV)
  ---------------------------------------------------
  alpha Z        PSCENC =       942.28241388
  Ewald energy   TEWEN  =     91938.07308661
  -Hartree energ DENC   =   -119880.03431458
  -exchange      EXHF   =         0.00000000
  -V(xc)+E(xc)   XCENC  =       130.09252370
  PAW double counting   =     32027.45908903   -31107.49491766
  entropy T*S    EENTRO =        -2.14984834
  eigenvalues    EBANDS =      -710.38669228
  atomic energy  EATOM  =     26432.59338697
  Solvation  Ediel_sol  =         0.00000000
  ---------------------------------------------------
  free energy    TOTEN  =      -229.56527267 eV

  energy without entropy =     -227.41542433  energy(sigma->0) =     -228.49034850


[...]
    154       0.2427      1.99995
    155       0.2775      1.99993
    156       0.2942      1.99991
    157       0.3922      1.99977
    158       0.4526      1.99957
    159       0.5184      1.99917
    160       0.5828      1.99842
    161       0.6539      1.99679
    162       0.6664      1.99637
    163       0.6736      1.99610
    164       0.6948      1.99518
    165       0.7754      1.98924
    166       0.7925      1.98724
    167       0.8440      1.97873
    168       0.8739      1.97142
    169       0.9691      1.92762
    170       1.0013      1.90150
    171       1.0228      1.87932
    172       1.0513      1.84253
    173       1.0579      1.83279
    174       1.0916      1.77341
    175       1.1043      1.74654
    176       1.1375      1.66363
    177       1.1958      1.46821
    178       1.2271      1.33734
    179       1.2569      1.19942
    180       1.2672      1.14945
    181       1.2785      1.09370
    182       1.3100      0.93648
    183       1.3245      0.86466
    184       1.3287      0.84421
    185       1.4327      0.41030
    186       1.5244      0.18711
    187       1.5406      0.16138
    188       1.5645      0.12926
    189       1.5684      0.12470
    190       1.5789      0.11293
    191       1.5986      0.09365
    192       1.6270      0.07132
    193       1.6493      0.05752
    194       1.6909      0.03831
    195       2.3793      0.00004
    196       2.7674      0.00000
    197       2.7682      0.00000
    198       2.7763      0.00000
    199       2.8032      0.00000
    200       2.8217      0.00000
    201       3.1441      0.00000
    202       3.1610      0.00000
    203       3.3656      0.00000
    204       3.5725      0.00000
    205       3.5819      0.00000
    206       3.8687      0.00000
    207       3.9858      0.00000
    208       4.1434      0.00000
    209       4.1586      0.00000
    210       4.2459      0.00000
    211       4.2642      0.00000
    212       4.3642      0.00000
    213       4.4762      0.00000
    214       4.6164      0.00000
    215       4.7493      0.00000
    216       4.9894      0.00000
    217       5.0577      0.00000
    218       5.3028      0.00000
    219       5.9232      0.00000
    220       5.9546      0.00000


--------------------------------------------------------------------------------------------------------


 soft charge-density along one line, spin component           1
         0         1         2         3         4         5         6         7         8         9
 total charge-density along one line
 
 pseudopotential strength for first ion, spin component:           1
 -6.085  -0.000   0.000  -0.011   0.000  -6.199  -0.000   0.000
 -0.000  -5.980   0.000  -0.000  -0.011  -0.000  -6.097   0.000
  0.000   0.000  -5.974  -0.000  -0.000   0.000   0.000  -6.091
 -0.011  -0.000  -0.000  -5.979  -0.000  -0.011  -0.000  -0.000
  0.000  -0.011  -0.000  -0.000  -6.085   0.000  -0.011  -0.000
 -6.199  -0.000   0.000  -0.011   0.000  -6.297  -0.000   0.000
 -0.000  -6.097   0.000  -0.000  -0.011  -0.000  -6.197   0.000
  0.000   0.000  -6.091  -0.000  -0.000   0.000   0.000  -6.192
 -0.011  -0.000  -0.000  -6.096  -0.000  -0.010  -0.000  -0.000
  0.000  -0.011  -0.000  -0.000  -6.199   0.000  -0.011  -0.000
  0.000  -0.000  -0.032   0.000  -0.000   0.000  -0.000  -0.032
  0.000  -0.000  -0.048   0.000  -0.000   0.000  -0.000  -0.047
  0.000  -0.004   0.000  -0.000   0.000   0.000  -0.003   0.000
 -0.000   0.000  -0.008   0.000   0.000  -0.000   0.000  -0.008
  0.000  -0.000  -0.000  -0.004   0.000   0.000  -0.000  -0.000
  0.000  -0.002   0.000  -0.000   0.001   0.000  -0.002   0.000
 -0.000   0.000  -0.008   0.000   0.000  -0.000   0.000  -0.008
  0.001  -0.000  -0.000  -0.002   0.000   0.001  -0.000  -0.000
 total augmentation occupancy for first ion, spin component:           1
  3.146  -0.000   0.000  -0.196   0.000  -2.018   0.000  -0.000   0.026  -0.000   0.000   0.000  -0.000   0.000  -0.051   0.000
 -0.000   3.898   0.006  -0.000  -0.198   0.000  -2.084  -0.004   0.000   0.034   0.001  -0.000  -0.258  -0.001   0.000   0.013
  0.000   0.006   4.194  -0.001  -0.000  -0.000  -0.004  -2.591   0.001   0.000   0.769  -0.120  -0.000  -0.317  -0.000   0.000
 -0.196  -0.000  -0.001   3.904  -0.000   0.033   0.000   0.001  -2.088   0.000  -0.000   0.000   0.000   0.000  -0.258  -0.000
  0.000  -0.198  -0.000  -0.000   3.147  -0.000   0.028   0.000   0.000  -2.019  -0.000  -0.000  -0.050  -0.000  -0.000   0.003
 -2.018   0.000  -0.000   0.033  -0.000   2.532  -0.000   0.000   0.089   0.000  -0.000   0.000   0.000  -0.000   0.050  -0.000
  0.000  -2.084  -0.004   0.000   0.028  -0.000   2.097   0.003  -0.000   0.088  -0.001  -0.000   0.246   0.001  -0.000  -0.017
 -0.000  -0.004  -2.591   0.001   0.000   0.000   0.003   2.754  -0.000  -0.000  -0.665   0.083   0.000   0.371   0.000  -0.000
  0.026   0.000   0.001  -2.088   0.000   0.089  -0.000  -0.000   2.100  -0.000   0.000   0.000  -0.000  -0.000   0.246   0.000
 -0.000   0.034   0.000   0.000  -2.019   0.000   0.088  -0.000  -0.000   2.532   0.000  -0.000   0.050   0.000   0.000  -0.003
  0.000   0.001   0.769  -0.000  -0.000  -0.000  -0.001  -0.665   0.000   0.000   2.235  -0.446  -0.000   0.185  -0.000   0.000
  0.000  -0.000  -0.120   0.000  -0.000   0.000  -0.000   0.083   0.000  -0.000  -0.446   0.110  -0.000  -0.065  -0.000   0.000
 -0.000  -0.258  -0.000   0.000  -0.050   0.000   0.246   0.000  -0.000   0.050  -0.000  -0.000   0.260  -0.000  -0.000  -0.014
  0.000  -0.001  -0.317   0.000  -0.000  -0.000   0.001   0.371  -0.000   0.000   0.185  -0.065  -0.000   0.148   0.000  -0.000
 -0.051   0.000  -0.000  -0.258  -0.000   0.050  -0.000   0.000   0.246   0.000  -0.000  -0.000  -0.000   0.000   0.260   0.000
  0.000   0.013   0.000  -0.000   0.003  -0.000  -0.017  -0.000   0.000  -0.003   0.000   0.000  -0.014  -0.000   0.000   0.001
 -0.000   0.000   0.004  -0.000   0.000   0.000  -0.000  -0.019   0.000   0.000  -0.018   0.005  -0.000  -0.009   0.000  -0.000
  0.003  -0.000  -0.000   0.013   0.000  -0.003   0.000   0.000  -0.017  -0.000   0.000  -0.000   0.000   0.000  -0.014  -0.000


------------------------ aborting loop because EDIFF is reached ----------------------------------------


    CHARGE:  cpu time    2.8006: real time    2.8008
    FORLOC:  cpu time    0.0460: real time    0.0454
    FORNL :  cpu time   12.2031: real time   12.2699
    STRESS:  cpu time   35.9345: real time   36.2018
    FORCOR:  cpu time    0.0730: real time    0.0731
    FORHAR:  cpu time    0.0310: real time    0.0310
    MIXING:  cpu time    0.0090: real time    0.0096
    OFIELD:  cpu time    0.0000: real time    0.0000

  FORCE on cell =-STRESS in cart. coord.  units (eV):
  Direction    XX          YY          ZZ          XY          YZ          ZX
  --------------------------------------------------------------------------------------
  Alpha Z   942.28241   942.28241   942.28241
  Ewald  111701.04794111714.48296************     2.51949    -6.58703     1.90052
  Hartree118140.25323118144.47862************     0.87407    -1.63613     0.37317
  E(xc)   -1615.56987 -1615.50303 -1625.36654     0.01231    -0.03344     0.01054
  Local  ************************241075.51230    -3.01684     6.72067    -1.79385
  n-local   143.68426   144.45449   129.10464     0.12846    -0.53652     0.17085
  augment  1880.77361  1879.85865  1928.21715    -0.15335     0.63617    -0.20915
  Kinetic  5278.28538  5276.43974  5411.08997    -0.31612     1.17060    -0.36772
  Fock        0.00000     0.00000     0.00000     0.00000     0.00000     0.00000
  -------------------------------------------------------------------------------------
  Total     -36.48073   -36.28328     0.10986     0.04803    -0.26568     0.08435
  in kB     -43.49879   -43.26337     0.13100     0.05727    -0.31679     0.10058
  external pressure =      -28.88 kB  Pullay stress =        0.00 kB


 VOLUME and BASIS-vectors are now :
 -----------------------------------------------------------------------------
  energy-cutoff  :      400.00
  volume of cell :     1343.68
      direct lattice vectors                 reciprocal lattice vectors
     8.421641764  0.000000000  0.000000000     0.118741693 -0.068555548  0.000000000
     4.210820882  7.293355709  0.000000000     0.000000000  0.137111097  0.000000000
     0.000000000  0.000000000 21.876241706     0.000000000  0.000000000  0.045711691

  length of vectors
     8.421641764  8.421641764 21.876241706     0.137111097  0.137111097  0.045711691


 FORCES acting on ions
    electron-ion (+dipol)            ewald-force                    non-local-force                 convergence-correction
 -----------------------------------------------------------------------------------------------
   -.288E-01 0.369E-02 0.232E+04   0.297E-01 -.105E-01 -.232E+04   -.615E-03 0.434E-02 -.108E+01   -.175E-04 -.339E-04 -.110E-03
   -.332E-01 -.360E+00 0.232E+04   0.276E-01 0.364E+00 -.232E+04   -.718E-02 -.635E-02 -.122E+01   -.972E-04 -.138E-03 -.222E-03
   0.684E-01 -.344E+00 0.232E+04   -.576E-01 0.347E+00 -.232E+04   0.471E-02 -.574E-02 -.122E+01   0.115E-03 0.373E-04 -.165E-03
   -.347E+00 0.120E+00 0.232E+04   0.354E+00 -.140E+00 -.232E+04   -.129E-01 0.368E-02 -.122E+01   -.157E-03 0.619E-05 -.202E-03
   0.313E-01 -.247E-01 0.232E+04   -.299E-01 0.170E-01 -.232E+04   -.799E-03 0.377E-02 -.126E+01   0.165E-03 0.124E-03 -.171E-03
   0.322E+00 0.980E-01 0.232E+04   -.325E+00 -.119E+00 -.232E+04   0.106E-01 0.365E-02 -.122E+01   -.765E-05 0.818E-04 -.568E-04
   -.282E+00 0.236E+00 0.232E+04   0.297E+00 -.241E+00 -.232E+04   -.699E-02 0.135E-01 -.122E+01   0.111E-03 0.649E-04 -.164E-03
   0.282E+00 0.202E+00 0.232E+04   -.294E+00 -.209E+00 -.232E+04   0.497E-02 0.139E-01 -.122E+01   0.326E-04 -.436E-04 -.752E-04
   0.666E-02 -.473E-02 0.232E+04   -.361E-02 -.402E-02 -.232E+04   -.138E-02 0.429E-02 -.125E+01   -.143E-03 -.981E-04 -.167E-03
   -.299E+01 -.190E+01 0.809E+03   0.288E+01 0.182E+01 -.808E+03   0.978E-01 0.866E-01 -.328E+00   -.244E-03 -.113E-03 0.112E-02
   0.282E+00 -.288E+01 0.809E+03   -.281E+00 0.290E+01 -.809E+03   -.782E-02 0.386E-01 -.304E+00   0.185E-03 0.417E-04 0.116E-02
   0.283E+01 -.184E+01 0.809E+03   -.272E+01 0.176E+01 -.809E+03   -.109E+00 0.866E-01 -.342E+00   0.593E-04 0.972E-04 0.121E-02
   -.228E+01 0.130E+01 0.809E+03   0.232E+01 -.134E+01 -.808E+03   0.633E-02 0.153E-01 -.298E+00   0.110E-03 0.165E-03 0.118E-02
   0.242E+01 0.100E+01 0.809E+03   -.245E+01 -.103E+01 -.808E+03   -.168E-01 0.186E-01 -.304E+00   0.172E-03 0.113E-03 0.121E-02
   -.378E-01 0.563E+00 0.812E+03   0.429E-01 -.602E+00 -.812E+03   -.746E-02 0.439E-01 -.425E+00   -.282E-03 -.230E-04 0.117E-02
   -.633E-01 0.331E+01 0.809E+03   0.687E-01 -.318E+01 -.808E+03   -.567E-02 -.102E+00 -.322E+00   0.885E-04 -.255E-04 0.121E-02
   0.838E+00 -.582E+00 0.812E+03   -.856E+00 0.583E+00 -.812E+03   0.555E-02 0.185E-01 -.419E+00   -.167E-03 -.264E-03 0.115E-02
   -.630E+00 -.478E+00 0.812E+03   0.657E+00 0.476E+00 -.812E+03   -.208E-01 0.198E-01 -.425E+00   0.786E-04 0.890E-05 0.121E-02
   -.353E+00 0.193E+01 -.712E+03   0.353E+00 -.196E+01 0.711E+03   0.696E-02 0.277E-01 0.526E+00   -.262E-03 0.103E-04 0.143E-02
   0.802E-01 -.781E+00 -.731E+03   0.357E+00 0.103E+01 0.731E+03   -.446E+00 -.246E+00 0.702E-01   0.308E-04 0.477E-04 0.148E-02
   0.252E+00 -.270E+00 -.729E+03   -.690E+00 0.523E+00 0.729E+03   0.445E+00 -.257E+00 0.989E-01   0.238E-03 0.120E-03 0.143E-02
   0.496E+00 -.246E+00 -.713E+03   -.418E+00 0.206E+00 0.712E+03   -.726E-01 0.446E-01 0.425E+00   -.445E-04 0.101E-03 0.149E-02
   0.424E+00 0.470E+00 -.730E+03   -.426E+00 -.969E+00 0.730E+03   -.336E-02 0.500E+00 0.857E-01   0.193E-03 0.167E-03 0.143E-02
   -.727E+00 -.416E+00 -.713E+03   0.655E+00 0.376E+00 0.712E+03   0.689E-01 0.431E-01 0.413E+00   -.148E-03 -.967E-04 0.141E-02
   -.149E+01 -.682E+00 -.712E+03   0.152E+01 0.699E+00 0.711E+03   -.328E-01 -.128E-01 0.531E+00   0.880E-04 0.154E-04 0.149E-02
   0.175E+01 -.104E+01 -.712E+03   -.178E+01 0.106E+01 0.712E+03   0.286E-01 -.811E-02 0.507E+00   -.160E-03 -.243E-03 0.146E-02
   -.147E+00 0.942E+00 -.713E+03   0.147E+00 -.861E+00 0.713E+03   0.736E-02 -.764E-01 0.424E+00   0.720E-04 -.116E-03 0.152E-02
   -.256E+00 0.246E+00 -.224E+04   0.239E+00 -.221E+00 0.224E+04   0.218E-01 -.205E-01 0.115E+01   -.133E-03 -.872E-04 0.256E-03
   0.150E+02 0.270E+02 -.222E+04   -.151E+02 -.271E+02 0.222E+04   0.135E+00 0.104E+00 0.123E+01   -.245E-04 -.142E-03 0.356E-03
   -.151E+02 0.275E+02 -.222E+04   0.152E+02 -.276E+02 0.221E+04   -.123E+00 0.997E-01 0.122E+01   0.156E-03 -.100E-04 0.284E-03
   0.306E+02 -.217E+00 -.222E+04   -.308E+02 0.187E+00 0.221E+04   0.192E+00 0.320E-01 0.122E+01   -.126E-03 0.510E-04 0.336E-03
   0.242E+00 0.122E+01 -.215E+04   -.246E+00 -.119E+01 0.216E+04   -.837E-04 -.301E-01 -.525E+01   0.168E-03 0.106E-03 0.109E-03
   -.310E+02 0.400E+00 -.222E+04   0.312E+02 -.427E+00 0.221E+04   -.176E+00 0.280E-01 0.121E+01   -.565E-04 0.714E-05 0.225E-03
   0.163E+02 -.268E+02 -.222E+04   -.164E+02 0.270E+02 0.221E+04   0.487E-01 -.202E+00 0.122E+01   0.834E-04 0.135E-03 0.256E-03
   -.155E+02 -.271E+02 -.222E+04   0.156E+02 0.273E+02 0.221E+04   -.538E-01 -.184E+00 0.122E+01   -.335E-04 -.487E-04 0.216E-03
   -.102E+01 -.223E+00 -.224E+04   0.101E+01 0.245E+00 0.224E+04   0.324E-01 -.116E-01 0.111E+01   -.512E-04 -.263E-04 0.264E-03
   0.692E-01 0.240E-01 -.998E+03   -.678E-01 -.235E-01 0.100E+04   -.310E-02 -.780E-02 -.180E+01   0.214E-04 0.121E-04 -.171E-03
   0.412E+02 -.262E+02 -.252E+03   -.457E+02 0.291E+02 0.254E+03   0.449E+01 -.286E+01 -.172E+01   0.197E-05 0.478E-05 -.469E-04
   0.202E+01 0.487E+02 -.252E+03   -.224E+01 -.540E+02 0.254E+03   0.221E+00 0.530E+01 -.176E+01   0.470E-05 -.917E-06 -.467E-04
   -.433E+02 -.227E+02 -.252E+03   0.480E+02 0.252E+02 0.254E+03   -.472E+01 -.248E+01 -.171E+01   0.432E-05 0.253E-05 -.515E-04
 -----------------------------------------------------------------------------------------------
   -.289E-02 0.875E-01 0.136E+02   0.497E-13 -.426E-13 0.938E-11   0.340E-02 0.514E-01 -.136E+02   0.228E-04 0.101E-04 0.244E-01
 
 
 POSITION                                       TOTAL-FORCE (eV/Angst)
 -----------------------------------------------------------------------------------
      0.00000      0.00000      7.50000         0.000214     -0.005954     -0.119965
      2.80721      0.00000      7.50000        -0.012849     -0.006233     -0.052605
      5.61443      0.00000      7.50000         0.015623     -0.006881     -0.053311
      1.40361      2.43112      7.50000        -0.005771     -0.020481     -0.054199
      4.21082      2.43112      7.50000         0.000793     -0.007365     -0.057061
      7.01803      2.43112      7.50000         0.008005     -0.020731     -0.053782
      2.80721      4.86224      7.50000         0.008593      0.004791     -0.054706
      5.61443      4.86224      7.50000        -0.006886      0.004050     -0.052920
      8.42164      4.86224      7.50000         0.001515     -0.008030     -0.048900
      1.40361      0.81037      9.79208        -0.012009      0.002770     -0.027682
      4.21082      0.81037      9.79208        -0.006151      0.063011      0.176031
      7.01803      0.81037      9.79208         0.009537      0.004123     -0.035998
      2.80721      3.24149      9.79208         0.045430     -0.020899      0.188006
      5.61443      3.24149      9.79208        -0.048716     -0.015114      0.181955
      8.42164      3.24149      9.79208        -0.002607      0.001775      0.004759
      4.21082      5.67261      9.79208        -0.000234      0.020505     -0.031399
      7.01803      5.67261      9.79208        -0.013366      0.015056      0.008907
      9.82525      5.67261      9.79208         0.006204      0.014850      0.003973
      8.41835      1.63266     12.04984         0.006731     -0.005489      0.002000
      2.82171      1.63991     12.08780        -0.008441      0.001912     -0.011687
      5.59450      1.64091     12.08508         0.007888     -0.008270      0.008291
      9.82437      4.06231     12.05275         0.005183      0.001045      0.013837
      4.20852      4.04358     12.08704        -0.004533     -0.002902     -0.004921
      7.01385      4.06206     12.05379        -0.002733     -0.000544      0.001709
     11.22600      6.49440     12.04969        -0.005576      0.000862      0.009207
      5.61187      6.49390     12.05138         0.004123      0.006341     -0.011340
      8.41867      6.49529     12.05343         0.007083      0.001257      0.011930
      8.41247      0.02354     14.35047         0.004392      0.001124      0.007593
      2.79536      0.02021     14.34809        -0.000444      0.008147      0.012370
      5.60950      0.02072     14.34756        -0.000707      0.004299      0.008151
      9.81139      2.45322     14.34724         0.007760     -0.001718      0.008542
      4.20282      2.45632     14.57010        -0.004367     -0.003423      0.003099
      7.01524      2.45358     14.34736        -0.005196     -0.002553      0.009136
     11.21961      4.89103     14.34720         0.001654     -0.007707      0.003068
      5.60897      4.89009     14.34744        -0.013233      0.001651      0.013357
      8.41223      4.88538     14.34971         0.013606      0.005930      0.006171
      4.20339      2.46548     16.64442        -0.001725     -0.010769     -0.009578
      3.32254      3.02619     16.98221         0.003404     -0.004852     -0.000195
      4.16009      1.42451     16.98991         0.002241      0.004072     -0.007238
      5.12857      2.95128     16.97972        -0.004435     -0.007657      0.005395
 -----------------------------------------------------------------------------------
    total drift:                                0.000531      0.138831     -0.027811


--------------------------------------------------------------------------------------------------------



  FREE ENERGIE OF THE ION-ELECTRON SYSTEM (eV)
  ---------------------------------------------------
  free  energy   TOTEN  =      -229.56511833 eV

  energy  without entropy=     -227.41369446  energy(sigma->0) =     -228.48940640
 


--------------------------------------------------------------------------------------------------------


    POTLOK:  cpu time    0.0710: real time    0.0704


--------------------------------------------------------------------------------------------------------


 stress matrix after NEB project (eV)
    -36.48073      0.04803      0.08435
      0.04803    -36.28328     -0.26568
      0.08435     -0.26568      0.10986
  FORCES: max atom, RMS     0.018874    0.008747
  FORCE total and by dimension    0.055319    0.013837
  Stress total and by dimension   51.453789   36.480728
     LOOP+:  cpu time 2789.6319: real time 2814.3415
    4ORBIT:  cpu time    0.0000: real time    0.0000

 total amount of memory used by VASP on root node   286532. kBytes
========================================================================

   base      :      30000. kBytes
   nonlr-proj:       4721. kBytes
   fftplans  :       4497. kBytes
   grid      :       7849. kBytes
   one-center:        155. kBytes
   wavefun   :     239310. kBytes
 
  
  
 General timing and accounting informations for this job:
 ========================================================
  
                  Total CPU time used (sec):     2814.847
                            User time (sec):     2286.221
                          System time (sec):      528.626
                         Elapsed time (sec):     2840.217
  
                   Maximum memory used (kb):      349640.
                   Average memory used (kb):           0.
  
                          Minor page faults:     12496063
                          Major page faults:           13
                 Voluntary context switches:        14894
