 running on   20 total cores
 distrk:  each k-point on   20 cores,    1 groups
 distr:  one band on    4 cores,    5 groups
 using from now: INCAR     
 vasp.5.4.1 24Jun15 (build Oct 10 2016 12:42:00) complex                        
  
 POSCAR found :  1 types and       2 ions
 scaLAPACK will be used

 ----------------------------------------------------------------------------- 
|                                                                             |
|  ADVICE TO THIS USER RUNNING 'VASP/VAMP'   (HEAR YOUR MASTER'S VOICE ...):  |
|                                                                             |
|      You have a (more or less) 'small supercell' and for smaller cells      |
|      it is recommended  to use the reciprocal-space projection scheme!      |
|      The real space optimization is not  efficient for small cells and it   |
|      is also less accurate ...                                              |
|      Therefore set LREAL=.FALSE. in the  INCAR file                         |
|                                                                             |
 ----------------------------------------------------------------------------- 

 LDA part: xc-table for Pade appr. of Perdew
 POSCAR found :  1 types and       2 ions
 POSCAR, INCAR and KPOINTS ok, starting setup
 WARNING: small aliasing (wrap around) errors must be expected
 FFT: planning ...
 WAVECAR not read
 entering main loop
       N       E                     dE             d eps       ncg     rms          rms(c)
DAV:   1     0.213286043920E+01    0.21329E+01   -0.36803E+02    15   0.139E+02
DAV:   2    -0.731045861856E+01   -0.94433E+01   -0.94433E+01    15   0.408E+01
DAV:   3    -0.745678634620E+01   -0.14633E+00   -0.14633E+00    20   0.835E+00
DAV:   4    -0.745682363493E+01   -0.37289E-04   -0.37289E-04    10   0.182E-01    0.453E+00
RMM:   5    -0.700111264048E+01    0.45571E+00   -0.18121E-01    13   0.208E+00    0.249E+00
RMM:   6    -0.675283920815E+01    0.24827E+00   -0.47838E-01    14   0.337E+00    0.302E-01
RMM:   7    -0.675684122741E+01   -0.40020E-02   -0.49326E-03    15   0.359E-01    0.240E-01
RMM:   8    -0.675379560271E+01    0.30456E-02   -0.38042E-03    16   0.289E-01    0.392E-02
RMM:   9    -0.675516981767E+01   -0.13742E-02   -0.14291E-03    10   0.162E-01    0.292E-02
RMM:  10    -0.675563621170E+01   -0.46639E-03   -0.15446E-05    16   0.220E-02    0.136E-02
RMM:  11    -0.675750195781E+01   -0.18657E-02   -0.42310E-04    11   0.945E-02    0.103E-02
RMM:  12    -0.675771601870E+01   -0.21406E-03   -0.27604E-05    14   0.213E-02    0.834E-03
RMM:  13    -0.675788943352E+01   -0.17341E-03   -0.17999E-05    13   0.191E-02    0.330E-03
RMM:  14    -0.675794344895E+01   -0.54015E-04   -0.12599E-06    14   0.525E-03    0.631E-04
RMM:  15    -0.675796533218E+01   -0.21883E-04   -0.35580E-07    12   0.328E-03    0.555E-04
RMM:  16    -0.675797907368E+01   -0.13741E-04   -0.10883E-07    14   0.161E-03    0.602E-04
RMM:  17    -0.675798244063E+01   -0.33670E-05   -0.71497E-08    17   0.123E-03    0.340E-04
RMM:  18    -0.675798471567E+01   -0.22750E-05    0.00000E+00    10   0.576E-04    0.946E-05
RMM:  19    -0.675798485935E+01   -0.14368E-06    0.00000E+00    15   0.646E-04
   1 F= -.67579849E+01 E0= -.67579849E+01  d E =-.219845E-09
