    8    8    1    1
  0.1000000E+04  0.2000000E-08  0.2000000E-08  0.2000000E-08  0.5000000E-15
  1.000000000000000E-004
  CAR 
 unknown system                          
     14      1     12
 
  0.0000000E+00  0.0000000E+00  0.0000000E+00  0.1000000E+01
    1      -18.489568   1.000000
    2      -14.974571   1.000000
    3      -10.457195   1.000000
    4      -10.456570   1.000000
    5       -8.866500   1.000000
    6       -8.082551   1.000000
    7       -8.081968   1.000000
    8       -0.443862   0.000000
    9        0.063004   0.000000
   10        0.086169   0.000000
   11        0.224751   0.000000
   12        0.225470   0.000000
