<?xml version="1.0" encoding="ISO-8859-1"?>
<modeling>
 <generator>
  <i name="program" type="string">vasp </i>
  <i name="version" type="string">5.4.1  </i>
  <i name="subversion" type="string">24Jun15 (build Oct 10 2016 12:42:00) complex                          parallel </i>
  <i name="platform" type="string">IFC91_ompi </i>
  <i name="date" type="string">2018 07 05 </i>
  <i name="time" type="string">10:34:10 </i>
 </generator>
 <incar>
  <i type="string" name="PREC">normal</i>
  <i type="string" name="ALGO"> fast</i>
  <i type="int" name="ISPIN">     1</i>
  <i type="int" name="NELMDL">    -4</i>
  <i type="int" name="NELMIN">     4</i>
  <i name="EDIFF">      0.00000100</i>
  <i name="ENCUT">    400.00000000</i>
  <i type="string" name="LREAL"> auto</i>
  <i type="int" name="ISMEAR">    -1</i>
  <i name="SIGMA">      0.10000000</i>
  <i type="logical" name="LWAVE"> F  </i>
  <i type="logical" name="LCHARG"> F  </i>
  <v type="int" name="KPOINT_BSE">    -1     0     0     0</v>
  <i type="string" name="GGA"> PE</i>
 </incar>
 <kpoints>
  <generation param="Monkhorst-Pack">
   <v type="int" name="divisions">       1        1        1 </v>
   <v name="usershift">      0.00000000       0.00000000       0.00000000 </v>
   <v name="genvec1">      1.00000000       0.00000000       0.00000000 </v>
   <v name="genvec2">      0.00000000       1.00000000       0.00000000 </v>
   <v name="genvec3">      0.00000000       0.00000000       1.00000000 </v>
   <v name="shift">      0.00000000       0.00000000       0.00000000 </v>
  </generation>
  <varray name="kpointlist" >
   <v>       0.00000000       0.00000000       0.00000000 </v>
  </varray>
  <varray name="weights" >
   <v>       1.00000000 </v>
  </varray>
 </kpoints>
 <parameters>
  <separator name="general" >
   <i type="string" name="SYSTEM">unknown system</i>
   <i type="logical" name="LCOMPAT"> F  </i>
  </separator>
  <separator name="electronic" >
   <i type="string" name="PREC">normal</i>
   <i name="ENMAX">    400.00000000</i>
   <i name="ENAUG">    644.87300000</i>
   <i name="EDIFF">      0.00000100</i>
   <i type="int" name="IALGO">    68</i>
   <i type="int" name="IWAVPR">    10</i>
   <i type="int" name="NBANDS">    12</i>
   <i name="NELECT">     14.00000000</i>
   <i type="int" name="TURBO">     0</i>
   <i type="int" name="IRESTART">     0</i>
   <i type="int" name="NREBOOT">     0</i>
   <i type="int" name="NMIN">     0</i>
   <i name="EREF">      0.00000000</i>
   <separator name="electronic smearing" >
    <i type="int" name="ISMEAR">    -1</i>
    <i name="SIGMA">      0.10000000</i>
    <i name="KSPACING">      0.50000000</i>
    <i type="logical" name="KGAMMA"> T  </i>
   </separator>
   <separator name="electronic projectors" >
    <i type="logical" name="LREAL"> T  </i>
    <v name="ROPT">     -0.00050000     -0.00050000</v>
    <i type="int" name="LMAXPAW">  -100</i>
    <i type="int" name="LMAXMIX">     2</i>
    <i type="logical" name="NLSPLINE"> F  </i>
   </separator>
   <separator name="electronic startup" >
    <i type="int" name="ISTART">     0</i>
    <i type="int" name="ICHARG">     2</i>
    <i type="int" name="INIWAV">     1</i>
   </separator>
   <separator name="electronic spin" >
    <i type="int" name="ISPIN">     1</i>
    <i type="logical" name="LNONCOLLINEAR"> F  </i>
    <v name="MAGMOM">      1.00000000      1.00000000      1.00000000      1.00000000      1.00000000      1.00000000      1.00000000      1.00000000</v>
    <i name="NUPDOWN">     -1.00000000</i>
    <i type="logical" name="LSORBIT"> F  </i>
    <v name="SAXIS">      0.00000000      0.00000000      1.00000000</v>
    <i type="logical" name="LSPIRAL"> F  </i>
    <v name="QSPIRAL">      0.00000000      0.00000000      0.00000000</v>
    <i type="logical" name="LZEROZ"> F  </i>
   </separator>
   <separator name="electronic exchange-correlation" >
    <i type="logical" name="LASPH"> F  </i>
    <i type="logical" name="LMETAGGA"> F  </i>
   </separator>
   <separator name="electronic convergence" >
    <i type="int" name="NELM">    60</i>
    <i type="int" name="NELMDL">    -4</i>
    <i type="int" name="NELMIN">     4</i>
    <i name="ENINI">    400.00000000</i>
    <separator name="electronic convergence detail" >
     <i type="logical" name="LDIAG"> T  </i>
     <i type="logical" name="LSUBROT"> F  </i>
     <i name="WEIMIN">      0.00000000</i>
     <i name="EBREAK">      0.00000002</i>
     <i name="DEPER">      0.30000000</i>
     <i type="int" name="NRMM">     4</i>
     <i name="TIME">      0.40000000</i>
    </separator>
   </separator>
   <separator name="electronic mixer" >
    <i name="AMIX">      0.40000000</i>
    <i name="BMIX">      1.00000000</i>
    <i name="AMIN">      0.10000000</i>
    <i name="AMIX_MAG">      1.60000000</i>
    <i name="BMIX_MAG">      1.00000000</i>
    <separator name="electronic mixer details" >
     <i type="int" name="IMIX">     4</i>
     <i type="logical" name="MIXFIRST"> F  </i>
     <i type="int" name="MAXMIX">   -45</i>
     <i name="WC">    100.00000000</i>
     <i type="int" name="INIMIX">     1</i>
     <i type="int" name="MIXPRE">     1</i>
     <i type="int" name="MREMOVE">     5</i>
    </separator>
   </separator>
   <separator name="electronic dipolcorrection" >
    <i type="logical" name="LDIPOL"> F  </i>
    <i type="logical" name="LMONO"> F  </i>
    <i type="int" name="IDIPOL">     0</i>
    <i name="EPSILON">      1.00000000</i>
    <v name="DIPOL">   -100.00000000   -100.00000000   -100.00000000</v>
    <i name="EFIELD">      0.00000000</i>
   </separator>
  </separator>
  <separator name="grids" >
   <i type="int" name="NGX">    98</i>
   <i type="int" name="NGY">    98</i>
   <i type="int" name="NGZ">    98</i>
   <i type="int" name="NGXF">   196</i>
   <i type="int" name="NGYF">   196</i>
   <i type="int" name="NGZF">   196</i>
   <i type="logical" name="ADDGRID"> F  </i>
  </separator>
  <separator name="ionic" >
   <i type="int" name="NSW">     0</i>
   <i type="int" name="IBRION">    -1</i>
   <i type="int" name="ISIF">     2</i>
   <i name="PSTRESS">      0.00000000</i>
   <i name="EDIFFG">      0.00001000</i>
   <i type="int" name="NFREE">     0</i>
   <i name="POTIM">      0.50000000</i>
   <i name="SMASS">     -3.00000000</i>
   <i name="SCALEE">      1.00000000</i>
  </separator>
  <separator name="ionic md" >
   <i name="TEBEG">      0.00010000</i>
   <i name="TEEND">      0.00010000</i>
   <i type="int" name="NBLOCK">     1</i>
   <i type="int" name="KBLOCK">     1</i>
   <i type="int" name="NPACO">   256</i>
   <i name="APACO">     16.00000000</i>
  </separator>
  <separator name="symmetry" >
   <i type="int" name="ISYM">     2</i>
   <i name="SYMPREC">      0.00001000</i>
  </separator>
  <separator name="dos" >
   <i type="logical" name="LORBIT"> F  </i>
   <v name="RWIGS">     -1.00000000     -1.00000000</v>
   <i type="int" name="NEDOS">   301</i>
   <i name="EMIN">     10.00000000</i>
   <i name="EMAX">    -10.00000000</i>
   <i name="EFERMI">      0.00000000</i>
  </separator>
  <separator name="writing" >
   <i type="int" name="NWRITE">     2</i>
   <i type="logical" name="LWAVE"> F  </i>
   <i type="logical" name="LCHARG"> F  </i>
   <i type="logical" name="LPARD"> F  </i>
   <i type="logical" name="LVTOT"> F  </i>
   <i type="logical" name="LVHAR"> F  </i>
   <i type="logical" name="LELF"> F  </i>
   <i type="logical" name="LOPTICS"> F  </i>
   <v name="STM">      0.00000000      0.00000000      0.00000000      0.00000000      0.00000000      0.00000000      0.00000000</v>
  </separator>
  <separator name="performance" >
   <i type="int" name="NPAR">     4</i>
   <i type="int" name="NSIM">     4</i>
   <i type="int" name="NBLK">    -1</i>
   <i type="logical" name="LPLANE"> T  </i>
   <i type="logical" name="LSCALAPACK"> T  </i>
   <i type="logical" name="LSCAAWARE"> F  </i>
   <i type="logical" name="LSCALU"> F  </i>
   <i type="logical" name="LASYNC"> F  </i>
   <i type="logical" name="LORBITALREAL"> F  </i>
  </separator>
  <separator name="miscellaneous" >
   <i type="int" name="IDIOT">     3</i>
   <i type="logical" name="LMUSIC"> F  </i>
   <v name="POMASS">     12.01100000      1.00000000</v>
   <v name="DARWINR">      0.00000000      0.00000000</v>
   <v name="DARWINV">      1.00000000      1.00000000</v>
   <i type="logical" name="LCORR"> T  </i>
  </separator>
  <i type="logical" name="GGA_COMPAT"> T  </i>
  <i type="logical" name="LBERRY"> F  </i>
  <i type="int" name="ICORELEVEL">     0</i>
  <i type="logical" name="LDAU"> F  </i>
  <i type="int" name="I_CONSTRAINED_M">     0</i>
  <separator name="electronic exchange-correlation" >
   <i type="string" name="GGA">PE</i>
   <i type="int" name="VOSKOWN">     0</i>
   <i type="logical" name="LHFCALC"> F  </i>
   <i type="string" name="PRECFOCK"></i>
   <i type="logical" name="LSYMGRAD"> F  </i>
   <i type="logical" name="LHFONE"> F  </i>
   <i type="logical" name="LRHFCALC"> F  </i>
   <i type="logical" name="LTHOMAS"> F  </i>
   <i type="logical" name="LMODELHF"> F  </i>
   <i name="ENCUT4O">     -1.00000000</i>
   <i type="int" name="EXXOEP">     0</i>
   <i type="int" name="FOURORBIT">     0</i>
   <i name="AEXX">      0.00000000</i>
   <i name="HFALPHA">      0.00000000</i>
   <i name="MCALPHA">      0.00000000</i>
   <i name="ALDAX">      1.00000000</i>
   <i name="AGGAX">      1.00000000</i>
   <i name="ALDAC">      1.00000000</i>
   <i name="AGGAC">      1.00000000</i>
   <i type="int" name="NKREDX">     1</i>
   <i type="int" name="NKREDY">     1</i>
   <i type="int" name="NKREDZ">     1</i>
   <i type="logical" name="SHIFTRED"> F  </i>
   <i type="logical" name="ODDONLY"> F  </i>
   <i type="logical" name="EVENONLY"> F  </i>
   <i type="int" name="LMAXFOCK">     0</i>
   <i type="int" name="NMAXFOCKAE">     0</i>
   <i type="logical" name="LFOCKAEDFT"> F  </i>
   <i name="HFSCREEN">      0.00000000</i>
   <i name="HFSCREENC">      0.00000000</i>
   <i type="int" name="NBANDSGWLOW">     0</i>
  </separator>
  <separator name="vdW DFT" >
   <i type="logical" name="LUSE_VDW"> F  </i>
   <i name="Zab_VDW">     -0.84910000</i>
   <i name="PARAM1">      0.12340000</i>
   <i name="PARAM2">      1.00000000</i>
   <i name="PARAM3">      0.00000000</i>
  </separator>
  <separator name="model GW" >
   <i type="int" name="MODEL_GW">     0</i>
   <i name="MODEL_EPS0">    600.00000000</i>
   <i name="MODEL_ALPHA">      1.00000000</i>
  </separator>
  <separator name="linear response parameters" >
   <i type="logical" name="LEPSILON"> F  </i>
   <i type="logical" name="LRPA"> F  </i>
   <i type="logical" name="LNABLA"> F  </i>
   <i type="logical" name="LVEL"> F  </i>
   <i type="int" name="KINTER">     0</i>
   <i name="CSHIFT">      0.10000000</i>
   <i name="OMEGAMAX">     -1.00000000</i>
   <i name="DEG_THRESHOLD">      0.00200000</i>
  </separator>
  <separator name="orbital magnetization" >
   <i type="logical" name="NUCIND"> F  </i>
   <v name="MAGPOS">      0.00000000      0.00000000      0.00000000</v>
   <i type="logical" name="LNICSALL"> T  </i>
   <i type="logical" name="ORBITALMAG"> F  </i>
   <i type="logical" name="LMAGBLOCH"> F  </i>
   <i type="logical" name="LCHIMAG"> F  </i>
   <i type="logical" name="LGAUGE"> T  </i>
   <i type="int" name="MAGATOM">     0</i>
   <v name="MAGDIPOL">      0.00000000      0.00000000      0.00000000</v>
   <v name="AVECCONST">      0.00000000      0.00000000      0.00000000</v>
  </separator>
  <separator name="response functions" >
   <i type="logical" name="LADDER"> F  </i>
   <i type="logical" name="LFXC"> F  </i>
   <i type="logical" name="LHARTREE"> T  </i>
   <i type="int" name="IBSE">     0</i>
   <v type="int" name="KPOINT">    -1     0     0     0</v>
   <i type="logical" name="LTCTE"> F  </i>
   <i type="logical" name="LTETE"> F  </i>
   <i type="logical" name="LTRIPLET"> F  </i>
   <i type="logical" name="LFXCEPS"> F  </i>
   <i type="logical" name="LFXHEG"> F  </i>
   <i type="int" name="NATURALO">     0</i>
   <i type="logical" name="L2ORDER"> F  </i>
   <i type="logical" name="LUSEW"> F  </i>
   <i name="ENCUTGW">     -2.00000000</i>
   <i name="ENCUTGWSOFT">     -2.00000000</i>
   <i name="ENCUTLF">     -1.00000000</i>
   <i type="int" name="LMAXMP2">    -1</i>
   <i name="SCISSOR">      0.00000000</i>
   <i type="int" name="NOMEGA">     0</i>
   <i type="int" name="NOMEGAR">     0</i>
   <i type="int" name="NBANDSGW">    -1</i>
   <i type="int" name="NBANDSO">    -1</i>
   <i type="int" name="NBANDSV">    -1</i>
   <i type="int" name="NELM">     1</i>
   <i type="int" name="NELMHF">     1</i>
   <i type="int" name="DIM">     3</i>
   <i type="int" name="ANTIRES">     0</i>
   <i name="OMEGAMAX">    -30.00000000</i>
   <i name="OMEGAMIN">    -30.00000000</i>
   <i name="OMEGATL">   -200.00000000</i>
   <i type="int" name="OMEGAGRID">     0</i>
   <i name="CSHIFT">     -0.10000000</i>
   <i type="logical" name="SELFENERGY"> F  </i>
   <i type="logical" name="LSPECTRAL"> F  </i>
   <i type="logical" name="LSPECTRALGW"> F  </i>
   <i type="logical" name="LSINGLES"> F  </i>
   <i type="logical" name="LFERMIGW"> F  </i>
   <i type="logical" name="ODDONLYGW"> F  </i>
   <i type="logical" name="EVENONLYGW"> F  </i>
   <i type="int" name="NKREDLFX">     1</i>
   <i type="int" name="NKREDLFY">     1</i>
   <i type="int" name="NKREDLFZ">     1</i>
   <i type="int" name="MAXMEM">  1800</i>
   <i type="int" name="TELESCOPE">     0</i>
   <i type="int" name="TAUPAR">     1</i>
   <i type="int" name="OMEGAPAR">    -1</i>
   <i name="LAMBDA">      1.00000000</i>
  </separator>
  <separator name="External order field" >
   <i name="OFIELD_KAPPA">      0.00000000</i>
   <v name="OFIELD_K">      0.00000000      0.00000000      0.00000000</v>
   <i name="OFIELD_Q6_NEAR">      0.00000000</i>
   <i name="OFIELD_Q6_FAR">      0.00000000</i>
   <i name="OFIELD_A">      0.00000000</i>
  </separator>
 </parameters>
 <atominfo>
  <atoms>       8 </atoms>
  <types>       2 </types>
  <array name="atoms" >
   <dimension dim="1">ion</dimension>
   <field type="string">element</field>
   <field type="int">atomtype</field>
   <set>
    <rc><c>C </c><c>   1</c></rc>
    <rc><c>C </c><c>   1</c></rc>
    <rc><c>H </c><c>   2</c></rc>
    <rc><c>H </c><c>   2</c></rc>
    <rc><c>H </c><c>   2</c></rc>
    <rc><c>H </c><c>   2</c></rc>
    <rc><c>H </c><c>   2</c></rc>
    <rc><c>H </c><c>   2</c></rc>
   </set>
  </array>
  <array name="atomtypes" >
   <dimension dim="1">type</dimension>
   <field type="int">atomspertype</field>
   <field type="string">element</field>
   <field>mass</field>
   <field>valence</field>
   <field type="string">pseudopotential</field>
   <set>
    <rc><c>   2</c><c>C </c><c>     12.01100000</c><c>      4.00000000</c><c>  PAW_PBE C 08Apr2002                   </c></rc>
    <rc><c>   6</c><c>H </c><c>      1.00000000</c><c>      1.00000000</c><c>  PAW_PBE H 15Jun2001                   </c></rc>
   </set>
  </array>
 </atominfo>
 <structure name="initialpos" >
  <crystal>
   <varray name="basis" >
    <v>      20.00000000       0.00000000       0.00000000 </v>
    <v>       0.00000000      20.00000000       0.00000000 </v>
    <v>       0.00000000       0.00000000      20.00000000 </v>
   </varray>
   <i name="volume">   8000.00000000 </i>
   <varray name="rec_basis" >
    <v>       0.05000000       0.00000000       0.00000000 </v>
    <v>       0.00000000       0.05000000       0.00000000 </v>
    <v>       0.00000000       0.00000000       0.05000000 </v>
   </varray>
  </crystal>
  <varray name="positions" >
   <v>       0.50000000       0.49999967       0.53820460 </v>
   <v>       0.50000000       0.50000033       0.46179540 </v>
   <v>       0.50000000       0.55120308       0.55832913 </v>
   <v>       0.45565178       0.47440067       0.55832838 </v>
   <v>       0.54434822       0.47440067       0.55832838 </v>
   <v>       0.50000000       0.44879692       0.44167087 </v>
   <v>       0.45565178       0.52559933       0.44167162 </v>
   <v>       0.54434822       0.52559933       0.44167162 </v>
  </varray>
 </structure>
 <calculation>
  <scstep>
   <time name="dav">    0.39    0.39</time>
   <time name="total">    0.77    0.81</time>
   <energy>
    <i name="alphaZ">      0.09745814 </i>
    <i name="ewald">    520.31988999 </i>
    <i name="hartreedc">   -739.74317128 </i>
    <i name="XCdc">     39.84709046 </i>
    <i name="pawpsdc">    229.84825738 </i>
    <i name="pawaedc">   -231.04033570 </i>
    <i name="eentropy">     -0.18112188 </i>
    <i name="bandstr">   -131.56178895 </i>
    <i name="atom">    369.12624373 </i>
    <i name="e_fr_energy">     56.71252190 </i>
    <i name="e_wo_entrp">     56.89364377 </i>
    <i name="e_0_energy">     56.80308283 </i>
   </energy>
  </scstep>
  <scstep>
   <time name="dav">    0.53    0.53</time>
   <time name="total">    0.53    0.57</time>
   <energy>
    <i name="e_fr_energy">    -23.26939514 </i>
    <i name="e_wo_entrp">    -23.26939514 </i>
    <i name="e_0_energy">    -23.26939514 </i>
   </energy>
  </scstep>
  <scstep>
   <time name="dav">    0.32    0.32</time>
   <time name="total">    0.32    0.32</time>
   <energy>
    <i name="e_fr_energy">    -43.43057121 </i>
    <i name="e_wo_entrp">    -43.43057121 </i>
    <i name="e_0_energy">    -43.43057121 </i>
   </energy>
  </scstep>
  <scstep>
   <time name="dav">    0.32    0.32</time>
   <time name="total">    0.46    0.46</time>
   <energy>
    <i name="e_fr_energy">    -45.72805956 </i>
    <i name="e_wo_entrp">    -45.72805956 </i>
    <i name="e_0_energy">    -45.72805956 </i>
   </energy>
  </scstep>
  <scstep>
   <time name="diag">    0.06    0.06</time>
   <time name="diis">    0.30    0.30</time>
   <time name="orth">    0.00    0.00</time>
   <time name="total">    0.86    0.88</time>
   <energy>
    <i name="e_fr_energy">    -41.63034918 </i>
    <i name="e_wo_entrp">    -41.63034918 </i>
    <i name="e_0_energy">    -41.63034918 </i>
   </energy>
  </scstep>
  <scstep>
   <time name="diag">    0.12    0.13</time>
   <time name="diis">    0.30    0.30</time>
   <time name="orth">    0.00    0.00</time>
   <time name="total">    0.90    0.91</time>
   <energy>
    <i name="e_fr_energy">    -40.67416062 </i>
    <i name="e_wo_entrp">    -40.67416062 </i>
    <i name="e_0_energy">    -40.67416062 </i>
   </energy>
  </scstep>
  <scstep>
   <time name="diag">    0.06    0.06</time>
   <time name="diis">    0.31    0.31</time>
   <time name="orth">    0.00    0.00</time>
   <time name="total">    0.84    0.85</time>
   <energy>
    <i name="e_fr_energy">    -40.51140767 </i>
    <i name="e_wo_entrp">    -40.51140767 </i>
    <i name="e_0_energy">    -40.51140767 </i>
   </energy>
  </scstep>
  <scstep>
   <time name="diag">    0.06    0.06</time>
   <time name="diis">    0.30    0.30</time>
   <time name="orth">    0.00    0.00</time>
   <time name="total">    0.83    0.87</time>
   <energy>
    <i name="e_fr_energy">    -40.48764435 </i>
    <i name="e_wo_entrp">    -40.48764435 </i>
    <i name="e_0_energy">    -40.48764435 </i>
   </energy>
  </scstep>
  <scstep>
   <time name="diag">    0.06    0.06</time>
   <time name="diis">    0.24    0.24</time>
   <time name="orth">    0.00    0.00</time>
   <time name="total">    0.82    0.85</time>
   <energy>
    <i name="e_fr_energy">    -40.49236937 </i>
    <i name="e_wo_entrp">    -40.49236937 </i>
    <i name="e_0_energy">    -40.49236937 </i>
   </energy>
  </scstep>
  <scstep>
   <time name="diag">    0.08    0.10</time>
   <time name="diis">    0.29    0.29</time>
   <time name="orth">    0.00    0.00</time>
   <time name="total">    0.87    0.89</time>
   <energy>
    <i name="e_fr_energy">    -40.47850662 </i>
    <i name="e_wo_entrp">    -40.47850662 </i>
    <i name="e_0_energy">    -40.47850662 </i>
   </energy>
  </scstep>
  <scstep>
   <time name="diag">    0.06    0.06</time>
   <time name="diis">    0.23    0.23</time>
   <time name="orth">    0.00    0.00</time>
   <time name="total">    0.81    0.86</time>
   <energy>
    <i name="e_fr_energy">    -40.48352183 </i>
    <i name="e_wo_entrp">    -40.48352183 </i>
    <i name="e_0_energy">    -40.48352183 </i>
   </energy>
  </scstep>
  <scstep>
   <time name="diag">    0.06    0.06</time>
   <time name="diis">    0.29    0.29</time>
   <time name="orth">    0.00    0.00</time>
   <time name="total">    0.83    0.85</time>
   <energy>
    <i name="e_fr_energy">    -40.48514192 </i>
    <i name="e_wo_entrp">    -40.48514192 </i>
    <i name="e_0_energy">    -40.48514192 </i>
   </energy>
  </scstep>
  <scstep>
   <time name="diag">    0.06    0.06</time>
   <time name="diis">    0.23    0.23</time>
   <time name="orth">    0.00    0.00</time>
   <time name="total">    0.79    0.87</time>
   <energy>
    <i name="e_fr_energy">    -40.49281830 </i>
    <i name="e_wo_entrp">    -40.49281830 </i>
    <i name="e_0_energy">    -40.49281830 </i>
   </energy>
  </scstep>
  <scstep>
   <time name="diag">    0.05    0.08</time>
   <time name="diis">    0.28    0.29</time>
   <time name="orth">    0.00    0.00</time>
   <time name="total">    0.82    0.89</time>
   <energy>
    <i name="e_fr_energy">    -40.49353915 </i>
    <i name="e_wo_entrp">    -40.49353915 </i>
    <i name="e_0_energy">    -40.49353915 </i>
   </energy>
  </scstep>
  <scstep>
   <time name="diag">    0.06    0.06</time>
   <time name="diis">    0.22    0.22</time>
   <time name="orth">    0.00    0.00</time>
   <time name="total">    0.85    0.85</time>
   <energy>
    <i name="e_fr_energy">    -40.49535254 </i>
    <i name="e_wo_entrp">    -40.49535254 </i>
    <i name="e_0_energy">    -40.49535254 </i>
   </energy>
  </scstep>
  <scstep>
   <time name="diag">    0.06    0.06</time>
   <time name="diis">    0.29    0.29</time>
   <time name="orth">    0.00    0.00</time>
   <time name="total">    0.83    0.83</time>
   <energy>
    <i name="e_fr_energy">    -40.49529171 </i>
    <i name="e_wo_entrp">    -40.49529171 </i>
    <i name="e_0_energy">    -40.49529171 </i>
   </energy>
  </scstep>
  <scstep>
   <time name="diag">    0.08    0.08</time>
   <time name="diis">    0.27    0.27</time>
   <time name="orth">    0.00    0.00</time>
   <time name="total">    0.90    0.91</time>
   <energy>
    <i name="e_fr_energy">    -40.49554517 </i>
    <i name="e_wo_entrp">    -40.49554517 </i>
    <i name="e_0_energy">    -40.49554517 </i>
   </energy>
  </scstep>
  <scstep>
   <time name="diag">    0.06    0.06</time>
   <time name="diis">    0.30    0.30</time>
   <time name="orth">    0.00    0.00</time>
   <time name="total">    0.94    0.94</time>
   <energy>
    <i name="e_fr_energy">    -40.49561539 </i>
    <i name="e_wo_entrp">    -40.49561539 </i>
    <i name="e_0_energy">    -40.49561539 </i>
   </energy>
  </scstep>
  <scstep>
   <time name="diag">    0.06    0.06</time>
   <time name="diis">    0.27    0.27</time>
   <time name="orth">    0.00    0.00</time>
   <time name="total">    0.82    0.82</time>
   <energy>
    <i name="e_fr_energy">    -40.49564838 </i>
    <i name="e_wo_entrp">    -40.49564838 </i>
    <i name="e_0_energy">    -40.49564838 </i>
   </energy>
  </scstep>
  <scstep>
   <time name="diag">    0.06    0.06</time>
   <time name="diis">    0.26    0.26</time>
   <time name="orth">    0.00    0.00</time>
   <time name="total">    0.86    0.89</time>
   <energy>
    <i name="e_fr_energy">    -40.49567180 </i>
    <i name="e_wo_entrp">    -40.49567180 </i>
    <i name="e_0_energy">    -40.49567180 </i>
   </energy>
  </scstep>
  <scstep>
   <time name="diag">    0.06    0.06</time>
   <time name="diis">    0.24    0.24</time>
   <time name="orth">    0.00    0.00</time>
   <time name="total">    0.79    0.79</time>
   <energy>
    <i name="e_fr_energy">    -40.49567741 </i>
    <i name="e_wo_entrp">    -40.49567741 </i>
    <i name="e_0_energy">    -40.49567741 </i>
   </energy>
  </scstep>
  <scstep>
   <time name="diag">    0.06    0.06</time>
   <time name="diis">    0.26    0.26</time>
   <time name="orth">    0.00    0.00</time>
   <time name="total">    0.82    0.82</time>
   <energy>
    <i name="e_fr_energy">    -40.49568250 </i>
    <i name="e_wo_entrp">    -40.49568250 </i>
    <i name="e_0_energy">    -40.49568250 </i>
   </energy>
  </scstep>
  <scstep>
   <time name="diag">    0.06    0.06</time>
   <time name="diis">    0.23    0.23</time>
   <time name="orth">    0.00    0.00</time>
   <time name="total">    0.68    0.68</time>
   <energy>
    <i name="alphaZ">      0.09745814 </i>
    <i name="ewald">    520.31988999 </i>
    <i name="hartreedc">   -813.86980239 </i>
    <i name="XCdc">     44.15604024 </i>
    <i name="pawpsdc">    887.41463421 </i>
    <i name="pawaedc">   -888.92230093 </i>
    <i name="eentropy">     -0.00000000 </i>
    <i name="bandstr">   -158.81784620 </i>
    <i name="atom">    369.12624373 </i>
    <i name="e_fr_energy">    -40.49568320 </i>
    <i name="e_wo_entrp">    -40.49568320 </i>
    <i name="e_0_energy">    -40.49568320 </i>
   </energy>
  </scstep>
  <structure>
   <crystal>
    <varray name="basis" >
     <v>      20.00000000       0.00000000       0.00000000 </v>
     <v>       0.00000000      20.00000000       0.00000000 </v>
     <v>       0.00000000       0.00000000      20.00000000 </v>
    </varray>
    <i name="volume">   8000.00000000 </i>
    <varray name="rec_basis" >
     <v>       0.05000000       0.00000000       0.00000000 </v>
     <v>       0.00000000       0.05000000       0.00000000 </v>
     <v>       0.00000000       0.00000000       0.05000000 </v>
    </varray>
   </crystal>
   <varray name="positions" >
    <v>       0.50000000       0.49999967       0.53820460 </v>
    <v>       0.50000000       0.50000033       0.46179540 </v>
    <v>       0.50000000       0.55120308       0.55832913 </v>
    <v>       0.45565178       0.47440067       0.55832838 </v>
    <v>       0.54434822       0.47440067       0.55832838 </v>
    <v>       0.50000000       0.44879692       0.44167087 </v>
    <v>       0.45565178       0.52559933       0.44167162 </v>
    <v>       0.54434822       0.52559933       0.44167162 </v>
   </varray>
  </structure>
  <varray name="forces" >
   <v>       0.00000000       0.00024931      -0.01819892 </v>
   <v>       0.00000000      -0.00024931       0.01819892 </v>
   <v>       0.00000000       0.00051414       0.00098369 </v>
   <v>      -0.00010776      -0.00015438       0.00084140 </v>
   <v>       0.00010776      -0.00015438       0.00084140 </v>
   <v>       0.00000000      -0.00051414      -0.00098369 </v>
   <v>      -0.00010776       0.00015438      -0.00084140 </v>
   <v>       0.00010776       0.00015438      -0.00084140 </v>
  </varray>
  <varray name="stress" >
   <v>      -0.12307281       0.00000000       0.00000000 </v>
   <v>       0.00000000      -0.12310735       0.00010888 </v>
   <v>       0.00000000       0.00010888      -0.13363091 </v>
  </varray>
  <energy>
   <i name="e_fr_energy">    -40.49568320 </i>
   <i name="e_wo_entrp">    -40.49568320 </i>
   <i name="e_0_energy">     -0.00000000 </i>
  </energy>
  <time name="totalsc">   19.40   19.85</time>
  <eigenvalues>
   <array>
    <dimension dim="1">band</dimension>
    <dimension dim="2">kpoint</dimension>
    <dimension dim="3">spin</dimension>
    <field>eigene</field>
    <field>occ</field>
    <set>
     <set comment="spin 1">
      <set comment="kpoint 1">
       <r>  -18.4896    1.0000 </r>
       <r>  -14.9746    1.0000 </r>
       <r>  -10.4572    1.0000 </r>
       <r>  -10.4566    1.0000 </r>
       <r>   -8.8665    1.0000 </r>
       <r>   -8.0826    1.0000 </r>
       <r>   -8.0820    1.0000 </r>
       <r>   -0.4439    0.0000 </r>
       <r>    0.0630    0.0000 </r>
       <r>    0.0862    0.0000 </r>
       <r>    0.2248    0.0000 </r>
       <r>    0.2255    0.0000 </r>
      </set>
     </set>
    </set>
   </array>
  </eigenvalues>
  <separator name="orbital magnetization" >
   <v name="MAGDIPOLOUT">      0.00000000      0.00000000      0.00000000</v>
  </separator>
  <dos>
   <i name="efermi">     -5.61049248 </i>
   <total>
    <array>
     <dimension dim="1">gridpoints</dimension>
     <dimension dim="2">spin</dimension>
     <field>energy</field>
     <field>total</field>
     <field>integrated</field>
     <set>
      <set comment="spin 1">
       <r>   -19.4896     0.0000     0.0000 </r>
       <r>   -19.4205     0.0000     0.0000 </r>
       <r>   -19.3515     0.0052     0.0004 </r>
       <r>   -19.2824     0.0052     0.0007 </r>
       <r>   -19.2134     0.0104     0.0014 </r>
       <r>   -19.1443     0.0207     0.0029 </r>
       <r>   -19.0753     0.0411     0.0057 </r>
       <r>   -19.0062     0.0817     0.0113 </r>
       <r>   -18.9372     0.1616     0.0225 </r>
       <r>   -18.8681     0.3170     0.0444 </r>
       <r>   -18.7991     0.6117     0.0866 </r>
       <r>   -18.7300     1.1446     0.1657 </r>
       <r>   -18.6610     2.0222     0.3053 </r>
       <r>   -18.5919     3.2354     0.5287 </r>
       <r>   -18.5229     4.4364     0.8350 </r>
       <r>   -18.4538     4.9507     1.1769 </r>
       <r>   -18.3848     4.4013     1.4808 </r>
       <r>   -18.3157     3.1891     1.7010 </r>
       <r>   -18.2467     1.9845     1.8380 </r>
       <r>   -18.1776     1.1203     1.9154 </r>
       <r>   -18.1086     0.5979     1.9567 </r>
       <r>   -18.0395     0.3095     1.9780 </r>
       <r>   -17.9705     0.1577     1.9889 </r>
       <r>   -17.9014     0.0797     1.9944 </r>
       <r>   -17.8324     0.0401     1.9972 </r>
       <r>   -17.7633     0.0202     1.9986 </r>
       <r>   -17.6943     0.0101     1.9993 </r>
       <r>   -17.6252     0.0000     2.0000 </r>
       <r>   -17.5562     0.0000     2.0000 </r>
       <r>   -17.4871     0.0000     2.0000 </r>
       <r>   -17.4181     0.0000     2.0000 </r>
       <r>   -17.3490     0.0000     2.0000 </r>
       <r>   -17.2800     0.0000     2.0000 </r>
       <r>   -17.2109     0.0000     2.0000 </r>
       <r>   -17.1419     0.0000     2.0000 </r>
       <r>   -17.0728     0.0000     2.0000 </r>
       <r>   -17.0038     0.0000     2.0000 </r>
       <r>   -16.9347     0.0000     2.0000 </r>
       <r>   -16.8657     0.0000     2.0000 </r>
       <r>   -16.7966     0.0000     2.0000 </r>
       <r>   -16.7276     0.0000     2.0000 </r>
       <r>   -16.6585     0.0000     2.0000 </r>
       <r>   -16.5895     0.0000     2.0000 </r>
       <r>   -16.5204     0.0000     2.0000 </r>
       <r>   -16.4514     0.0000     2.0000 </r>
       <r>   -16.3823     0.0000     2.0000 </r>
       <r>   -16.3133     0.0000     2.0000 </r>
       <r>   -16.2442     0.0000     2.0000 </r>
       <r>   -16.1752     0.0000     2.0000 </r>
       <r>   -16.1061     0.0000     2.0000 </r>
       <r>   -16.0371     0.0000     2.0000 </r>
       <r>   -15.9680     0.0000     2.0000 </r>
       <r>   -15.8990     0.0000     2.0000 </r>
       <r>   -15.8299     0.0056     2.0004 </r>
       <r>   -15.7609     0.0056     2.0008 </r>
       <r>   -15.6918     0.0111     2.0015 </r>
       <r>   -15.6228     0.0221     2.0031 </r>
       <r>   -15.5537     0.0439     2.0061 </r>
       <r>   -15.4847     0.0872     2.0121 </r>
       <r>   -15.4156     0.1723     2.0240 </r>
       <r>   -15.3466     0.3377     2.0473 </r>
       <r>   -15.2775     0.6503     2.0922 </r>
       <r>   -15.2085     1.2118     2.1759 </r>
       <r>   -15.1394     2.1252     2.3227 </r>
       <r>   -15.0704     3.3591     2.5546 </r>
       <r>   -15.0013     4.5256     2.8671 </r>
       <r>   -14.9323     4.9436     3.2085 </r>
       <r>   -14.8632     4.3034     3.5056 </r>
       <r>   -14.7942     3.0658     3.7173 </r>
       <r>   -14.7251     1.8860     3.8475 </r>
       <r>   -14.6561     1.0574     3.9205 </r>
       <r>   -14.5870     0.5622     3.9594 </r>
       <r>   -14.5180     0.2905     3.9794 </r>
       <r>   -14.4489     0.1479     3.9896 </r>
       <r>   -14.3799     0.0747     3.9948 </r>
       <r>   -14.3108     0.0376     3.9974 </r>
       <r>   -14.2418     0.0189     3.9987 </r>
       <r>   -14.1727     0.0000     4.0000 </r>
       <r>   -14.1037     0.0000     4.0000 </r>
       <r>   -14.0346     0.0000     4.0000 </r>
       <r>   -13.9656     0.0000     4.0000 </r>
       <r>   -13.8965     0.0000     4.0000 </r>
       <r>   -13.8275     0.0000     4.0000 </r>
       <r>   -13.7584     0.0000     4.0000 </r>
       <r>   -13.6894     0.0000     4.0000 </r>
       <r>   -13.6203     0.0000     4.0000 </r>
       <r>   -13.5513     0.0000     4.0000 </r>
       <r>   -13.4822     0.0000     4.0000 </r>
       <r>   -13.4132     0.0000     4.0000 </r>
       <r>   -13.3441     0.0000     4.0000 </r>
       <r>   -13.2751     0.0000     4.0000 </r>
       <r>   -13.2060     0.0000     4.0000 </r>
       <r>   -13.1370     0.0000     4.0000 </r>
       <r>   -13.0679     0.0000     4.0000 </r>
       <r>   -12.9989     0.0000     4.0000 </r>
       <r>   -12.9298     0.0000     4.0000 </r>
       <r>   -12.8608     0.0000     4.0000 </r>
       <r>   -12.7917     0.0000     4.0000 </r>
       <r>   -12.7227     0.0000     4.0000 </r>
       <r>   -12.6536     0.0000     4.0000 </r>
       <r>   -12.5846     0.0000     4.0000 </r>
       <r>   -12.5155     0.0000     4.0000 </r>
       <r>   -12.4465     0.0000     4.0000 </r>
       <r>   -12.3774     0.0000     4.0000 </r>
       <r>   -12.3084     0.0000     4.0000 </r>
       <r>   -12.2393     0.0000     4.0000 </r>
       <r>   -12.1703     0.0000     4.0000 </r>
       <r>   -12.1012     0.0000     4.0000 </r>
       <r>   -12.0322     0.0000     4.0000 </r>
       <r>   -11.9631     0.0000     4.0000 </r>
       <r>   -11.8941     0.0000     4.0000 </r>
       <r>   -11.8250     0.0000     4.0000 </r>
       <r>   -11.7560     0.0000     4.0000 </r>
       <r>   -11.6869     0.0000     4.0000 </r>
       <r>   -11.6179     0.0000     4.0000 </r>
       <r>   -11.5488     0.0000     4.0000 </r>
       <r>   -11.4798     0.0000     4.0000 </r>
       <r>   -11.4107     0.0000     4.0000 </r>
       <r>   -11.3417     0.0000     4.0000 </r>
       <r>   -11.2726     0.0166     4.0011 </r>
       <r>   -11.2036     0.0165     4.0023 </r>
       <r>   -11.1345     0.0329     4.0046 </r>
       <r>   -11.0655     0.0655     4.0091 </r>
       <r>   -10.9964     0.1302     4.0181 </r>
       <r>   -10.9274     0.2580     4.0359 </r>
       <r>   -10.8583     0.5078     4.0709 </r>
       <r>   -10.7893     0.9865     4.1391 </r>
       <r>   -10.7202     1.8691     4.2681 </r>
       <r>   -10.6512     3.3784     4.5014 </r>
       <r>   -10.5821     5.6173     4.8893 </r>
       <r>   -10.5131     8.1584     5.4526 </r>
       <r>   -10.4440     9.7901     6.1286 </r>
       <r>   -10.3750     9.3805     6.7764 </r>
       <r>   -10.3059     7.2378     7.2761 </r>
       <r>   -10.2369     4.7064     7.6011 </r>
       <r>   -10.1678     2.7292     7.7896 </r>
       <r>   -10.0988     1.4786     7.8917 </r>
       <r>   -10.0297     0.7717     7.9449 </r>
       <r>    -9.9607     0.3949     7.9722 </r>
       <r>    -9.8916     0.2000     7.9860 </r>
       <r>    -9.8226     0.1008     7.9930 </r>
       <r>    -9.7535     0.0507     7.9965 </r>
       <r>    -9.6844     0.0336     7.9988 </r>
       <r>    -9.6154     0.0081     8.0011 </r>
       <r>    -9.5463     0.0161     8.0022 </r>
       <r>    -9.4773     0.0320     8.0044 </r>
       <r>    -9.4082     0.0637     8.0088 </r>
       <r>    -9.3392     0.1262     8.0176 </r>
       <r>    -9.2701     0.2484     8.0347 </r>
       <r>    -9.2011     0.4829     8.0681 </r>
       <r>    -9.1320     0.9160     8.1313 </r>
       <r>    -9.0630     1.6590     8.2459 </r>
       <r>    -8.9939     2.7679     8.4370 </r>
       <r>    -8.9249     4.0540     8.7169 </r>
       <r>    -8.8558     4.8957     9.0550 </r>
       <r>    -8.7868     4.7386     9.3822 </r>
       <r>    -8.7177     3.7103     9.6384 </r>
       <r>    -8.6487     2.4907     9.8103 </r>
       <r>    -8.5796     1.5883     9.9200 </r>
       <r>    -8.5106     1.1450     9.9991 </r>
       <r>    -8.4415     1.1573    10.0790 </r>
       <r>    -8.3725     1.6647    10.1939 </r>
       <r>    -8.3034     2.8048    10.3876 </r>
       <r>    -8.2344     4.7189    10.7134 </r>
       <r>    -8.1653     7.2207    11.2120 </r>
       <r>    -8.0963     9.3687    11.8590 </r>
       <r>    -8.0272     9.8016    12.5367 </r>
       <r>    -7.9582     8.1974    13.1027 </r>
       <r>    -7.8891     5.6597    13.4935 </r>
       <r>    -7.8201     3.4101    13.7290 </r>
       <r>    -7.7510     1.8886    13.8594 </r>
       <r>    -7.6820     0.9974    13.9282 </r>
       <r>    -7.6129     0.5135    13.9637 </r>
       <r>    -7.5439     0.2610    13.9817 </r>
       <r>    -7.4748     0.1317    13.9908 </r>
       <r>    -7.4058     0.0663    13.9954 </r>
       <r>    -7.3367     0.0333    13.9977 </r>
       <r>    -7.2677     0.0000    14.0000 </r>
       <r>    -7.1986     0.0000    14.0000 </r>
       <r>    -7.1296     0.0000    14.0000 </r>
       <r>    -7.0605     0.0000    14.0000 </r>
       <r>    -6.9915     0.0000    14.0000 </r>
       <r>    -6.9224     0.0000    14.0000 </r>
       <r>    -6.8534     0.0000    14.0000 </r>
       <r>    -6.7843     0.0000    14.0000 </r>
       <r>    -6.7153     0.0000    14.0000 </r>
       <r>    -6.6462     0.0000    14.0000 </r>
       <r>    -6.5772     0.0000    14.0000 </r>
       <r>    -6.5081     0.0000    14.0000 </r>
       <r>    -6.4391     0.0000    14.0000 </r>
       <r>    -6.3700     0.0000    14.0000 </r>
       <r>    -6.3010     0.0000    14.0000 </r>
       <r>    -6.2319     0.0000    14.0000 </r>
       <r>    -6.1629     0.0000    14.0000 </r>
       <r>    -6.0938     0.0000    14.0000 </r>
       <r>    -6.0248     0.0000    14.0000 </r>
       <r>    -5.9557     0.0000    14.0000 </r>
       <r>    -5.8867     0.0000    14.0000 </r>
       <r>    -5.8176     0.0000    14.0000 </r>
       <r>    -5.7486     0.0000    14.0000 </r>
       <r>    -5.6795     0.0000    14.0000 </r>
       <r>    -5.6105     0.0000    14.0000 </r>
       <r>    -5.5414     0.0000    14.0000 </r>
       <r>    -5.4724     0.0000    14.0000 </r>
       <r>    -5.4033     0.0000    14.0000 </r>
       <r>    -5.3343     0.0000    14.0000 </r>
       <r>    -5.2652     0.0000    14.0000 </r>
       <r>    -5.1962     0.0000    14.0000 </r>
       <r>    -5.1271     0.0000    14.0000 </r>
       <r>    -5.0581     0.0000    14.0000 </r>
       <r>    -4.9890     0.0000    14.0000 </r>
       <r>    -4.9200     0.0000    14.0000 </r>
       <r>    -4.8509     0.0000    14.0000 </r>
       <r>    -4.7819     0.0000    14.0000 </r>
       <r>    -4.7128     0.0000    14.0000 </r>
       <r>    -4.6438     0.0000    14.0000 </r>
       <r>    -4.5747     0.0000    14.0000 </r>
       <r>    -4.5057     0.0000    14.0000 </r>
       <r>    -4.4366     0.0000    14.0000 </r>
       <r>    -4.3676     0.0000    14.0000 </r>
       <r>    -4.2985     0.0000    14.0000 </r>
       <r>    -4.2295     0.0000    14.0000 </r>
       <r>    -4.1604     0.0000    14.0000 </r>
       <r>    -4.0914     0.0000    14.0000 </r>
       <r>    -4.0223     0.0000    14.0000 </r>
       <r>    -3.9533     0.0000    14.0000 </r>
       <r>    -3.8842     0.0000    14.0000 </r>
       <r>    -3.8152     0.0000    14.0000 </r>
       <r>    -3.7461     0.0000    14.0000 </r>
       <r>    -3.6771     0.0000    14.0000 </r>
       <r>    -3.6080     0.0000    14.0000 </r>
       <r>    -3.5390     0.0000    14.0000 </r>
       <r>    -3.4699     0.0000    14.0000 </r>
       <r>    -3.4009     0.0000    14.0000 </r>
       <r>    -3.3318     0.0000    14.0000 </r>
       <r>    -3.2628     0.0000    14.0000 </r>
       <r>    -3.1937     0.0000    14.0000 </r>
       <r>    -3.1247     0.0000    14.0000 </r>
       <r>    -3.0556     0.0000    14.0000 </r>
       <r>    -2.9866     0.0000    14.0000 </r>
       <r>    -2.9175     0.0000    14.0000 </r>
       <r>    -2.8485     0.0000    14.0000 </r>
       <r>    -2.7794     0.0000    14.0000 </r>
       <r>    -2.7104     0.0000    14.0000 </r>
       <r>    -2.6413     0.0000    14.0000 </r>
       <r>    -2.5723     0.0000    14.0000 </r>
       <r>    -2.5032     0.0000    14.0000 </r>
       <r>    -2.4342     0.0000    14.0000 </r>
       <r>    -2.3651     0.0000    14.0000 </r>
       <r>    -2.2961     0.0000    14.0000 </r>
       <r>    -2.2270     0.0000    14.0000 </r>
       <r>    -2.1580     0.0000    14.0000 </r>
       <r>    -2.0889     0.0000    14.0000 </r>
       <r>    -2.0199     0.0000    14.0000 </r>
       <r>    -1.9508     0.0000    14.0000 </r>
       <r>    -1.8818     0.0000    14.0000 </r>
       <r>    -1.8127     0.0000    14.0000 </r>
       <r>    -1.7437     0.0000    14.0000 </r>
       <r>    -1.6746     0.0000    14.0000 </r>
       <r>    -1.6056     0.0000    14.0000 </r>
       <r>    -1.5365     0.0000    14.0000 </r>
       <r>    -1.4675     0.0000    14.0000 </r>
       <r>    -1.3984     0.0000    14.0000 </r>
       <r>    -1.3294     0.0000    14.0000 </r>
       <r>    -1.2603     0.0082    14.0006 </r>
       <r>    -1.1913     0.0082    14.0011 </r>
       <r>    -1.1222     0.0163    14.0023 </r>
       <r>    -1.0532     0.0325    14.0045 </r>
       <r>    -0.9841     0.0646    14.0090 </r>
       <r>    -0.9151     0.1280    14.0178 </r>
       <r>    -0.8460     0.2520    14.0352 </r>
       <r>    -0.7770     0.5014    14.0698 </r>
       <r>    -0.7079     0.9399    14.1347 </r>
       <r>    -0.6389     1.7124    14.2530 </r>
       <r>    -0.5698     2.8512    14.4498 </r>
       <r>    -0.5008     4.1786    14.7384 </r>
       <r>    -0.4317     5.1138    15.0915 </r>
       <r>    -0.3627     5.1387    15.4463 </r>
       <r>    -0.2936     4.4974    15.7569 </r>
       <r>    -0.2246     4.0367    16.0356 </r>
       <r>    -0.1555     4.5086    16.3469 </r>
       <r>    -0.0865     6.3257    16.7837 </r>
       <r>    -0.0174     9.4946    17.4393 </r>
       <r>     0.0516    13.3033    18.3579 </r>
       <r>     0.1207    16.3306    19.4855 </r>
       <r>     0.1897    17.3369    20.6827 </r>
       <r>     0.2588    15.9212    21.7820 </r>
       <r>     0.3278    12.5479    22.6484 </r>
       <r>     0.3969     8.5119    23.2371 </r>
       <r>     0.4659     5.1245    23.5909 </r>
       <r>     0.5350     2.8455    23.7874 </r>
       <r>     0.6040     1.5062    23.8914 </r>
       <r>     0.6731     0.7766    23.9450 </r>
       <r>     0.7421     0.3949    23.9723 </r>
       <r>     0.8112     0.1994    23.9861 </r>
       <r>     0.8802     0.0922    23.9936 </r>
       <r>     0.9493     0.0412    23.9971 </r>
       <r>     1.0183     0.0207    23.9986 </r>
       <r>     1.0874     0.0000    24.0000 </r>
       <r>     1.1564     0.0000    24.0000 </r>
       <r>     1.2255     0.0000    24.0000 </r>
      </set>
     </set>
    </array>
   </total>
  </dos>
 </calculation>
 <structure name="finalpos" >
  <crystal>
   <varray name="basis" >
    <v>      20.00000000       0.00000000       0.00000000 </v>
    <v>       0.00000000      20.00000000       0.00000000 </v>
    <v>       0.00000000       0.00000000      20.00000000 </v>
   </varray>
   <i name="volume">   8000.00000000 </i>
   <varray name="rec_basis" >
    <v>       0.05000000       0.00000000       0.00000000 </v>
    <v>       0.00000000       0.05000000       0.00000000 </v>
    <v>       0.00000000       0.00000000       0.05000000 </v>
   </varray>
  </crystal>
  <varray name="positions" >
   <v>       0.50000000       0.49999967       0.53820460 </v>
   <v>       0.50000000       0.50000033       0.46179540 </v>
   <v>       0.50000000       0.55120308       0.55832913 </v>
   <v>       0.45565178       0.47440067       0.55832838 </v>
   <v>       0.54434822       0.47440067       0.55832838 </v>
   <v>       0.50000000       0.44879692       0.44167087 </v>
   <v>       0.45565178       0.52559933       0.44167162 </v>
   <v>       0.54434822       0.52559933       0.44167162 </v>
  </varray>
 </structure>
</modeling>
