 running on   20 total cores
 distrk:  each k-point on   20 cores,    1 groups
 distr:  one band on    4 cores,    5 groups
 using from now: INCAR     
 vasp.5.4.1 24Jun15 (build Oct 10 2016 12:42:00) complex                        
  
 POSCAR found :  2 types and       8 ions
 scaLAPACK will be used

 ----------------------------------------------------------------------------- 
|                                                                             |
|  ADVICE TO THIS USER RUNNING 'VASP/VAMP'   (HEAR YOUR MASTER'S VOICE ...):  |
|                                                                             |
|      You have a (more or less) 'small supercell' and for smaller cells      |
|      it is recommended  to use the reciprocal-space projection scheme!      |
|      The real space optimization is not  efficient for small cells and it   |
|      is also less accurate ...                                              |
|      Therefore set LREAL=.FALSE. in the  INCAR file                         |
|                                                                             |
 ----------------------------------------------------------------------------- 

 LDA part: xc-table for Pade appr. of Perdew
 POSCAR found :  2 types and       8 ions
 POSCAR, INCAR and KPOINTS ok, starting setup
 WARNING: small aliasing (wrap around) errors must be expected
 FFT: planning ...
 WAVECAR not read
 entering main loop
       N       E                     dE             d eps       ncg     rms          rms(c)
DAV:   1     0.398112874010E+02    0.39811E+02   -0.27572E+03    50   0.319E+02
DAV:   2    -0.357847207283E+02   -0.75596E+02   -0.75365E+02    50   0.978E+01
DAV:   3    -0.453813056588E+02   -0.95966E+01   -0.95860E+01    40   0.385E+01
DAV:   4    -0.458337689779E+02   -0.45246E+00   -0.45230E+00    50   0.996E+00    0.108E+01
RMM:   5    -0.415931979320E+02    0.42406E+01   -0.74233E+00    45   0.115E+01    0.561E+00
RMM:   6    -0.406983978815E+02    0.89480E+00   -0.27150E+00    46   0.665E+00    0.271E+00
RMM:   7    -0.404972808047E+02    0.20112E+00   -0.27336E-01    46   0.249E+00    0.294E-01
RMM:   8    -0.404846433005E+02    0.12638E-01   -0.28067E-02    45   0.720E-01    0.221E-01
RMM:   9    -0.404791739743E+02    0.54693E-02   -0.20689E-02    38   0.544E-01    0.179E-01
RMM:  10    -0.404796866306E+02   -0.51266E-03   -0.11354E-02    42   0.474E-01    0.183E-01
RMM:  11    -0.404835483997E+02   -0.38618E-02   -0.50011E-03    31   0.261E-01    0.455E-02
RMM:  12    -0.404896607605E+02   -0.61124E-02   -0.17994E-03    38   0.172E-01    0.717E-02
RMM:  13    -0.404928002443E+02   -0.31395E-02   -0.21163E-03    34   0.186E-01    0.266E-02
RMM:  14    -0.404945400352E+02   -0.17398E-02   -0.26020E-04    34   0.653E-02    0.500E-03
RMM:  15    -0.404947242317E+02   -0.18420E-03   -0.36836E-05    41   0.171E-02    0.415E-03
RMM:  16    -0.404951090345E+02   -0.38480E-03   -0.26144E-05    33   0.174E-02    0.281E-03
RMM:  17    -0.404951701529E+02   -0.61118E-04   -0.44547E-06    45   0.773E-03    0.231E-03
RMM:  18    -0.404952476900E+02   -0.77537E-04   -0.13818E-06    32   0.489E-03    0.222E-03
RMM:  19    -0.404952691736E+02   -0.21484E-04   -0.35423E-06    38   0.724E-03    0.202E-03
RMM:  20    -0.404952747463E+02   -0.55727E-05   -0.91157E-08    34   0.181E-03    0.144E-03
RMM:  21    -0.404952771697E+02   -0.24234E-05   -0.51396E-07    36   0.302E-03    0.207E-04
RMM:  22    -0.404952788026E+02   -0.16329E-05   -0.59894E-08    28   0.143E-03    0.190E-04
RMM:  23    -0.404952788435E+02   -0.40865E-07    0.00000E+00    29   0.816E-04
   1 F= -.40495279E+02 E0= -.40495279E+02  d E =-.233801E-09
