    2    2    1    1
  0.4000000E+04  0.2000000E-08  0.2000000E-08  0.2000000E-08  0.5000000E-15
  1.000000000000000E-004
  CAR 
 unknown system                          
      2      1      5
 
  0.0000000E+00  0.0000000E+00  0.0000000E+00  0.1000000E+01
    1      -10.373089   1.000000
    2       -0.054769   0.000000
    3        0.174623   0.000000
    4        0.252977   0.000000
    5        0.317347   0.000000
