  41  41   0   0
  0.3277276E+02  0.8421642E-09  0.8421642E-09  0.2187624E-08  0.5000000E-15
  1.000000000000000E-004
  CAR 
 unknown system                          
      8.36338199    -14.07039107  301      1.47817752      1.00000000
    -14.070  0.0000E+00  0.0000E+00
    -13.996  0.0000E+00  0.0000E+00
    -13.921  0.4404E-02  0.3293E-03
    -13.846  0.4897E-02  0.6956E-03
    -13.771  0.1034E-01  0.1469E-02
    -13.696  0.2181E-01  0.3100E-02
    -13.622  0.4596E-01  0.6537E-02
    -13.547  0.9656E-01  0.1376E-01
    -13.472  0.2017E+00  0.2884E-01
    -13.397  0.4161E+00  0.5996E-01
    -13.323  0.8372E+00  0.1226E+00
    -13.248  0.1602E+01  0.2424E+00
    -13.173  0.2792E+01  0.4512E+00
    -13.098  0.4155E+01  0.7618E+00
    -13.023  0.4928E+01  0.1130E+01
    -12.949  0.4489E+01  0.1466E+01
    -12.874  0.3207E+01  0.1706E+01
    -12.799  0.1915E+01  0.1849E+01
    -12.724  0.1023E+01  0.1926E+01
    -12.650  0.5146E+00  0.1964E+01
    -12.575  0.2509E+00  0.1983E+01
    -12.500  0.1204E+00  0.1992E+01
    -12.425  0.5740E-01  0.1996E+01
    -12.350  0.2726E-01  0.1998E+01
    -12.276  0.1293E-01  0.1999E+01
    -12.201  0.0000E+00  0.2000E+01
    -12.126  0.0000E+00  0.2000E+01
    -12.051  0.0000E+00  0.2000E+01
    -11.977  0.0000E+00  0.2000E+01
    -11.902  0.0000E+00  0.2000E+01
    -11.827  0.0000E+00  0.2000E+01
    -11.752  0.0000E+00  0.2000E+01
    -11.677  0.0000E+00  0.2000E+01
    -11.603  0.0000E+00  0.2000E+01
    -11.528  0.0000E+00  0.2000E+01
    -11.453  0.0000E+00  0.2000E+01
    -11.378  0.0000E+00  0.2000E+01
    -11.304  0.0000E+00  0.2000E+01
    -11.229  0.0000E+00  0.2000E+01
    -11.154  0.0000E+00  0.2000E+01
    -11.079  0.0000E+00  0.2000E+01
    -11.004  0.0000E+00  0.2000E+01
    -10.930  0.0000E+00  0.2000E+01
    -10.855  0.0000E+00  0.2000E+01
    -10.780  0.0000E+00  0.2000E+01
    -10.705  0.0000E+00  0.2000E+01
    -10.631  0.0000E+00  0.2000E+01
    -10.556  0.0000E+00  0.2000E+01
    -10.481  0.0000E+00  0.2000E+01
    -10.406  0.0000E+00  0.2000E+01
    -10.331  0.0000E+00  0.2000E+01
    -10.257  0.0000E+00  0.2000E+01
    -10.182  0.2416E-03  0.2000E+01
    -10.107  0.7216E-02  0.2001E+01
    -10.032  0.8291E-02  0.2001E+01
     -9.958  0.1750E-01  0.2002E+01
     -9.883  0.3688E-01  0.2005E+01
     -9.808  0.7757E-01  0.2011E+01
     -9.733  0.1624E+00  0.2023E+01
     -9.658  0.3365E+00  0.2048E+01
     -9.584  0.6831E+00  0.2099E+01
     -9.509  0.1331E+01  0.2199E+01
     -9.434  0.2396E+01  0.2378E+01
     -9.359  0.3761E+01  0.2659E+01
     -9.285  0.4799E+01  0.3018E+01
     -9.210  0.4738E+01  0.3372E+01
     -9.135  0.3628E+01  0.3644E+01
     -9.060  0.2273E+01  0.3814E+01
     -8.985  0.1250E+01  0.3907E+01
     -8.911  0.6382E+00  0.3955E+01
     -8.836  0.3135E+00  0.3978E+01
     -8.761  0.1511E+00  0.3990E+01
     -8.686  0.7213E-01  0.3995E+01
     -8.612  0.3429E-01  0.3998E+01
     -8.537  0.1663E-01  0.3999E+01
     -8.462  0.8800E-03  0.4000E+01
     -8.387  0.2119E-02  0.4000E+01
     -8.312  0.4210E-02  0.4001E+01
     -8.238  0.9145E-02  0.4001E+01
     -8.163  0.1848E-01  0.4003E+01
     -8.088  0.3987E-01  0.4006E+01
     -8.013  0.8111E-01  0.4012E+01
     -7.938  0.1644E+00  0.4024E+01
     -7.864  0.3169E+00  0.4048E+01
     -7.789  0.5684E+00  0.4090E+01
     -7.714  0.9110E+00  0.4158E+01
     -7.639  0.1283E+01  0.4254E+01
     -7.565  0.1600E+01  0.4374E+01
     -7.490  0.1811E+01  0.4509E+01
     -7.415  0.1927E+01  0.4653E+01
     -7.340  0.2008E+01  0.4804E+01
     -7.265  0.2098E+01  0.4961E+01
     -7.191  0.2162E+01  0.5122E+01
     -7.116  0.2156E+01  0.5283E+01
     -7.041  0.2126E+01  0.5442E+01
     -6.966  0.2136E+01  0.5602E+01
     -6.892  0.2213E+01  0.5768E+01
     -6.817  0.2328E+01  0.5942E+01
     -6.742  0.2416E+01  0.6123E+01
     -6.667  0.2461E+01  0.6307E+01
     -6.592  0.2528E+01  0.6496E+01
     -6.518  0.2708E+01  0.6698E+01
     -6.443  0.3083E+01  0.6929E+01
     -6.368  0.3653E+01  0.7202E+01
     -6.293  0.4247E+01  0.7520E+01
     -6.219  0.4643E+01  0.7867E+01
     -6.144  0.4801E+01  0.8226E+01
     -6.069  0.4885E+01  0.8591E+01
     -5.994  0.5041E+01  0.8969E+01
     -5.919  0.5302E+01  0.9365E+01
     -5.845  0.5676E+01  0.9790E+01
     -5.770  0.6173E+01  0.1025E+02
     -5.695  0.6739E+01  0.1076E+02
     -5.620  0.7357E+01  0.1131E+02
     -5.546  0.8233E+01  0.1192E+02
     -5.471  0.9680E+01  0.1265E+02
     -5.396  0.1188E+02  0.1353E+02
     -5.321  0.1480E+02  0.1464E+02
     -5.246  0.1810E+02  0.1600E+02
     -5.172  0.2128E+02  0.1759E+02
     -5.097  0.2395E+02  0.1938E+02
     -5.022  0.2590E+02  0.2131E+02
     -4.947  0.2718E+02  0.2335E+02
     -4.873  0.2816E+02  0.2545E+02
     -4.798  0.2926E+02  0.2764E+02
     -4.723  0.3060E+02  0.2993E+02
     -4.648  0.3199E+02  0.3232E+02
     -4.573  0.3309E+02  0.3480E+02
     -4.499  0.3399E+02  0.3734E+02
     -4.424  0.3533E+02  0.3998E+02
     -4.349  0.3767E+02  0.4280E+02
     -4.274  0.4101E+02  0.4587E+02
     -4.200  0.4489E+02  0.4923E+02
     -4.125  0.4850E+02  0.5285E+02
     -4.050  0.5096E+02  0.5667E+02
     -3.975  0.5186E+02  0.6055E+02
     -3.900  0.5141E+02  0.6439E+02
     -3.826  0.5009E+02  0.6814E+02
     -3.751  0.4808E+02  0.7173E+02
     -3.676  0.4528E+02  0.7512E+02
     -3.601  0.4196E+02  0.7826E+02
     -3.527  0.3890E+02  0.8117E+02
     -3.452  0.3691E+02  0.8393E+02
     -3.377  0.3672E+02  0.8668E+02
     -3.302  0.3866E+02  0.8957E+02
     -3.227  0.4198E+02  0.9271E+02
     -3.153  0.4512E+02  0.9609E+02
     -3.078  0.4701E+02  0.9961E+02
     -3.003  0.4790E+02  0.1032E+03
     -2.928  0.4867E+02  0.1068E+03
     -2.854  0.4969E+02  0.1106E+03
     -2.779  0.5055E+02  0.1143E+03
     -2.704  0.5070E+02  0.1181E+03
     -2.629  0.5027E+02  0.1219E+03
     -2.554  0.4982E+02  0.1256E+03
     -2.480  0.4978E+02  0.1293E+03
     -2.405  0.5057E+02  0.1331E+03
     -2.330  0.5244E+02  0.1370E+03
     -2.255  0.5506E+02  0.1412E+03
     -2.180  0.5801E+02  0.1455E+03
     -2.106  0.6107E+02  0.1501E+03
     -2.031  0.6376E+02  0.1548E+03
     -1.956  0.6586E+02  0.1598E+03
     -1.881  0.6799E+02  0.1649E+03
     -1.807  0.7081E+02  0.1701E+03
     -1.732  0.7383E+02  0.1757E+03
     -1.657  0.7606E+02  0.1814E+03
     -1.582  0.7741E+02  0.1872E+03
     -1.507  0.7823E+02  0.1930E+03
     -1.433  0.7841E+02  0.1989E+03
     -1.358  0.7731E+02  0.2047E+03
     -1.283  0.7427E+02  0.2102E+03
     -1.208  0.6919E+02  0.2154E+03
     -1.134  0.6295E+02  0.2201E+03
     -1.059  0.5689E+02  0.2244E+03
     -0.984  0.5209E+02  0.2283E+03
     -0.909  0.4934E+02  0.2319E+03
     -0.834  0.4903E+02  0.2356E+03
     -0.760  0.5083E+02  0.2394E+03
     -0.685  0.5398E+02  0.2435E+03
     -0.610  0.5726E+02  0.2477E+03
     -0.535  0.5892E+02  0.2522E+03
     -0.461  0.5795E+02  0.2565E+03
     -0.386  0.5536E+02  0.2606E+03
     -0.311  0.5310E+02  0.2646E+03
     -0.236  0.5216E+02  0.2685E+03
     -0.161  0.5246E+02  0.2724E+03
     -0.087  0.5348E+02  0.2764E+03
     -0.012  0.5480E+02  0.2805E+03
      0.063  0.5654E+02  0.2848E+03
      0.138  0.5886E+02  0.2892E+03
      0.212  0.6126E+02  0.2937E+03
      0.287  0.6301E+02  0.2985E+03
      0.362  0.6355E+02  0.3032E+03
      0.437  0.6238E+02  0.3079E+03
      0.512  0.5958E+02  0.3123E+03
      0.586  0.5623E+02  0.3165E+03
      0.661  0.5386E+02  0.3206E+03
      0.736  0.5307E+02  0.3245E+03
      0.811  0.5334E+02  0.3285E+03
      0.885  0.5407E+02  0.3326E+03
      0.960  0.5539E+02  0.3367E+03
      1.035  0.5798E+02  0.3411E+03
      1.110  0.6187E+02  0.3457E+03
      1.185  0.6605E+02  0.3506E+03
      1.259  0.6929E+02  0.3558E+03
      1.334  0.7082E+02  0.3611E+03
      1.409  0.7009E+02  0.3664E+03
      1.484  0.6678E+02  0.3714E+03
      1.558  0.6124E+02  0.3759E+03
      1.633  0.5450E+02  0.3800E+03
      1.708  0.4734E+02  0.3836E+03
      1.783  0.3987E+02  0.3865E+03
      1.858  0.3256E+02  0.3890E+03
      1.932  0.2649E+02  0.3910E+03
      2.007  0.2211E+02  0.3926E+03
      2.082  0.1894E+02  0.3940E+03
      2.157  0.1653E+02  0.3953E+03
      2.231  0.1479E+02  0.3964E+03
      2.306  0.1361E+02  0.3974E+03
      2.381  0.1289E+02  0.3984E+03
      2.456  0.1239E+02  0.3993E+03
      2.531  0.1195E+02  0.4002E+03
      2.605  0.1161E+02  0.4011E+03
      2.680  0.1141E+02  0.4019E+03
      2.755  0.1145E+02  0.4028E+03
      2.830  0.1173E+02  0.4037E+03
      2.904  0.1213E+02  0.4046E+03
      2.979  0.1255E+02  0.4055E+03
      3.054  0.1283E+02  0.4065E+03
      3.129  0.1281E+02  0.4074E+03
      3.204  0.1255E+02  0.4084E+03
      3.278  0.1247E+02  0.4093E+03
      3.353  0.1282E+02  0.4103E+03
      3.428  0.1333E+02  0.4112E+03
      3.503  0.1342E+02  0.4123E+03
      3.578  0.1288E+02  0.4132E+03
      3.652  0.1202E+02  0.4141E+03
      3.727  0.1136E+02  0.4150E+03
      3.802  0.1128E+02  0.4158E+03
      3.877  0.1165E+02  0.4167E+03
      3.951  0.1200E+02  0.4176E+03
      4.026  0.1200E+02  0.4185E+03
      4.101  0.1168E+02  0.4194E+03
      4.176  0.1144E+02  0.4202E+03
      4.251  0.1153E+02  0.4211E+03
      4.325  0.1172E+02  0.4219E+03
      4.400  0.1162E+02  0.4228E+03
      4.475  0.1120E+02  0.4237E+03
      4.550  0.1079E+02  0.4245E+03
      4.624  0.1085E+02  0.4253E+03
      4.699  0.1140E+02  0.4261E+03
      4.774  0.1195E+02  0.4270E+03
      4.849  0.1209E+02  0.4279E+03
      4.924  0.1176E+02  0.4288E+03
      4.998  0.1117E+02  0.4296E+03
      5.073  0.1065E+02  0.4304E+03
      5.148  0.1039E+02  0.4312E+03
      5.223  0.1035E+02  0.4320E+03
      5.297  0.1038E+02  0.4328E+03
      5.372  0.1043E+02  0.4335E+03
      5.447  0.1061E+02  0.4343E+03
      5.522  0.1093E+02  0.4352E+03
      5.597  0.1122E+02  0.4360E+03
      5.671  0.1127E+02  0.4368E+03
      5.746  0.1108E+02  0.4377E+03
      5.821  0.1077E+02  0.4385E+03
      5.896  0.1035E+02  0.4392E+03
      5.970  0.9866E+01  0.4400E+03
      6.045  0.9513E+01  0.4407E+03
      6.120  0.9439E+01  0.4414E+03
      6.195  0.9629E+01  0.4421E+03
      6.270  0.9945E+01  0.4429E+03
      6.344  0.1022E+02  0.4436E+03
      6.419  0.1032E+02  0.4444E+03
      6.494  0.1019E+02  0.4452E+03
      6.569  0.9796E+01  0.4459E+03
      6.643  0.9214E+01  0.4466E+03
      6.718  0.8587E+01  0.4472E+03
      6.793  0.7992E+01  0.4478E+03
      6.868  0.7338E+01  0.4484E+03
      6.943  0.6427E+01  0.4489E+03
      7.017  0.5189E+01  0.4492E+03
      7.092  0.3803E+01  0.4495E+03
      7.167  0.2548E+01  0.4497E+03
      7.242  0.1582E+01  0.4498E+03
      7.316  0.9309E+00  0.4499E+03
      7.391  0.5323E+00  0.4500E+03
      7.466  0.2944E+00  0.4500E+03
      7.541  0.1564E+00  0.4500E+03
      7.616  0.7798E-01  0.4500E+03
      7.690  0.3619E-01  0.4500E+03
      7.765  0.1475E-01  0.4500E+03
      7.840  0.6373E-02  0.4500E+03
      7.915  0.2343E-02  0.4500E+03
      7.989  0.8594E-03  0.4500E+03
      8.064  0.4079E-03  0.4500E+03
      8.139  0.1933E-03  0.4500E+03
      8.214  0.0000E+00  0.4500E+03
      8.289  0.0000E+00  0.4500E+03
      8.363  0.0000E+00  0.4500E+03
