<?xml version="1.0" encoding="ISO-8859-1"?>
<modeling>
 <generator>
  <i name="program" type="string">vasp </i>
  <i name="version" type="string">5.4.1  </i>
  <i name="subversion" type="string">24Jun15 (build Oct 10 2016 12:42:00) complex                          parallel </i>
  <i name="platform" type="string">IFC91_ompi </i>
  <i name="date" type="string">2018 05 21 </i>
  <i name="time" type="string">15:31:31 </i>
 </generator>
 <incar>
  <i type="string" name="PREC">normal</i>
  <i type="string" name="ALGO"> fast</i>
  <i type="int" name="ISPIN">     1</i>
  <i type="int" name="NELMDL">    -4</i>
  <i type="int" name="NELMIN">     4</i>
  <i name="EDIFF">      0.00000100</i>
  <i name="ENCUT">    400.00000000</i>
  <i type="string" name="LREAL"> auto</i>
  <i type="int" name="ISMEAR">    -1</i>
  <i name="SIGMA">      0.10000000</i>
  <i type="logical" name="LWAVE"> F  </i>
  <i type="logical" name="LCHARG"> F  </i>
  <v type="int" name="KPOINT_BSE">    -1     0     0     0</v>
  <i type="string" name="GGA"> PE</i>
 </incar>
 <kpoints>
  <generation param="Monkhorst-Pack">
   <v type="int" name="divisions">       6        6        1 </v>
   <v name="usershift">      0.00000000       0.00000000       0.00000000 </v>
   <v name="genvec1">      0.16666667      -0.00000000       0.00000000 </v>
   <v name="genvec2">      0.00000000       0.16666667       0.00000000 </v>
   <v name="genvec3">      0.00000000       0.00000000       1.00000000 </v>
   <v name="shift">      0.50000000       0.50000000       0.00000000 </v>
  </generation>
  <varray name="kpointlist" >
   <v>       0.08333333       0.08333333       0.00000000 </v>
   <v>       0.00000000       0.08333333       0.00000000 </v>
   <v>      -0.08333333       0.00000000       0.00000000 </v>
   <v>       0.25000000       0.08333333       0.00000000 </v>
   <v>       0.16666667       0.25000000       0.00000000 </v>
   <v>      -0.08333333       0.16666667       0.00000000 </v>
   <v>       0.16666667      -0.08333333       0.00000000 </v>
   <v>      -0.08333333      -0.25000000       0.00000000 </v>
   <v>      -0.25000000      -0.16666667       0.00000000 </v>
   <v>       0.41666667       0.08333333       0.00000000 </v>
   <v>       0.33333333       0.41666667       0.00000000 </v>
   <v>      -0.08333333       0.33333333       0.00000000 </v>
   <v>       0.33333333      -0.08333333       0.00000000 </v>
   <v>      -0.08333333      -0.41666667       0.00000000 </v>
   <v>      -0.41666667      -0.33333333       0.00000000 </v>
   <v>      -0.41666667       0.08333333       0.00000000 </v>
   <v>       0.50000000      -0.41666667       0.00000000 </v>
   <v>      -0.08333333       0.50000000       0.00000000 </v>
   <v>       0.50000000      -0.08333333       0.00000000 </v>
   <v>      -0.08333333       0.41666667       0.00000000 </v>
   <v>       0.41666667       0.50000000       0.00000000 </v>
   <v>      -0.25000000       0.08333333       0.00000000 </v>
   <v>      -0.33333333      -0.25000000       0.00000000 </v>
   <v>      -0.08333333      -0.33333333       0.00000000 </v>
   <v>      -0.33333333      -0.08333333       0.00000000 </v>
   <v>      -0.08333333       0.25000000       0.00000000 </v>
   <v>       0.25000000       0.33333333       0.00000000 </v>
   <v>      -0.08333333       0.08333333       0.00000000 </v>
   <v>      -0.16666667      -0.08333333       0.00000000 </v>
   <v>      -0.08333333      -0.16666667       0.00000000 </v>
   <v>       0.25000000       0.25000000       0.00000000 </v>
   <v>       0.00000000       0.25000000       0.00000000 </v>
   <v>      -0.25000000       0.00000000       0.00000000 </v>
   <v>       0.41666667       0.25000000       0.00000000 </v>
   <v>       0.16666667       0.41666667       0.00000000 </v>
   <v>      -0.25000000       0.16666667       0.00000000 </v>
   <v>       0.16666667      -0.25000000       0.00000000 </v>
   <v>      -0.25000000      -0.41666667       0.00000000 </v>
   <v>      -0.41666667      -0.16666667       0.00000000 </v>
   <v>      -0.41666667       0.25000000       0.00000000 </v>
   <v>       0.33333333      -0.41666667       0.00000000 </v>
   <v>      -0.25000000       0.33333333       0.00000000 </v>
   <v>       0.33333333      -0.25000000       0.00000000 </v>
   <v>      -0.25000000       0.41666667       0.00000000 </v>
   <v>       0.41666667      -0.33333333       0.00000000 </v>
   <v>      -0.25000000       0.25000000       0.00000000 </v>
   <v>       0.50000000      -0.25000000       0.00000000 </v>
   <v>      -0.25000000       0.50000000       0.00000000 </v>
   <v>       0.41666667       0.41666667       0.00000000 </v>
   <v>       0.00000000       0.41666667       0.00000000 </v>
   <v>      -0.41666667      -0.00000000       0.00000000 </v>
   <v>      -0.41666667       0.41666667       0.00000000 </v>
   <v>       0.16666667      -0.41666667       0.00000000 </v>
   <v>      -0.41666667       0.16666667       0.00000000 </v>
  </varray>
  <varray name="weights" >
   <v>       0.01851852 </v>
   <v>       0.01851852 </v>
   <v>       0.01851852 </v>
   <v>       0.01851852 </v>
   <v>       0.01851852 </v>
   <v>       0.01851852 </v>
   <v>       0.01851852 </v>
   <v>       0.01851852 </v>
   <v>       0.01851852 </v>
   <v>       0.01851852 </v>
   <v>       0.01851852 </v>
   <v>       0.01851852 </v>
   <v>       0.01851852 </v>
   <v>       0.01851852 </v>
   <v>       0.01851852 </v>
   <v>       0.01851852 </v>
   <v>       0.01851852 </v>
   <v>       0.01851852 </v>
   <v>       0.01851852 </v>
   <v>       0.01851852 </v>
   <v>       0.01851852 </v>
   <v>       0.01851852 </v>
   <v>       0.01851852 </v>
   <v>       0.01851852 </v>
   <v>       0.01851852 </v>
   <v>       0.01851852 </v>
   <v>       0.01851852 </v>
   <v>       0.01851852 </v>
   <v>       0.01851852 </v>
   <v>       0.01851852 </v>
   <v>       0.01851852 </v>
   <v>       0.01851852 </v>
   <v>       0.01851852 </v>
   <v>       0.01851852 </v>
   <v>       0.01851852 </v>
   <v>       0.01851852 </v>
   <v>       0.01851852 </v>
   <v>       0.01851852 </v>
   <v>       0.01851852 </v>
   <v>       0.01851852 </v>
   <v>       0.01851852 </v>
   <v>       0.01851852 </v>
   <v>       0.01851852 </v>
   <v>       0.01851852 </v>
   <v>       0.01851852 </v>
   <v>       0.01851852 </v>
   <v>       0.01851852 </v>
   <v>       0.01851852 </v>
   <v>       0.01851852 </v>
   <v>       0.01851852 </v>
   <v>       0.01851852 </v>
   <v>       0.01851852 </v>
   <v>       0.01851852 </v>
   <v>       0.01851852 </v>
  </varray>
 </kpoints>
 <parameters>
  <separator name="general" >
   <i type="string" name="SYSTEM">unknown system</i>
   <i type="logical" name="LCOMPAT"> F  </i>
  </separator>
  <separator name="electronic" >
   <i type="string" name="PREC">normal</i>
   <i name="ENMAX">    400.00000000</i>
   <i name="ENAUG">    644.87300000</i>
   <i name="EDIFF">      0.00000100</i>
   <i type="int" name="IALGO">    68</i>
   <i type="int" name="IWAVPR">    10</i>
   <i type="int" name="NBANDS">   225</i>
   <i name="NELECT">    371.00000000</i>
   <i type="int" name="TURBO">     0</i>
   <i type="int" name="IRESTART">     0</i>
   <i type="int" name="NREBOOT">     0</i>
   <i type="int" name="NMIN">     0</i>
   <i name="EREF">      0.00000000</i>
   <separator name="electronic smearing" >
    <i type="int" name="ISMEAR">    -1</i>
    <i name="SIGMA">      0.10000000</i>
    <i name="KSPACING">      0.50000000</i>
    <i type="logical" name="KGAMMA"> T  </i>
   </separator>
   <separator name="electronic projectors" >
    <i type="logical" name="LREAL"> T  </i>
    <v name="ROPT">     -0.00050000     -0.00050000     -0.00050000</v>
    <i type="int" name="LMAXPAW">  -100</i>
    <i type="int" name="LMAXMIX">     2</i>
    <i type="logical" name="NLSPLINE"> F  </i>
   </separator>
   <separator name="electronic startup" >
    <i type="int" name="ISTART">     0</i>
    <i type="int" name="ICHARG">     2</i>
    <i type="int" name="INIWAV">     1</i>
   </separator>
   <separator name="electronic spin" >
    <i type="int" name="ISPIN">     1</i>
    <i type="logical" name="LNONCOLLINEAR"> F  </i>
    <v name="MAGMOM">      1.00000000      1.00000000      1.00000000      1.00000000      1.00000000      1.00000000      1.00000000      1.00000000      1.00000000      1.00000000      1.00000000      1.00000000      1.00000000      1.00000000      1.00000000      1.00000000      1.00000000      1.00000000      1.00000000      1.00000000
      1.00000000      1.00000000      1.00000000      1.00000000      1.00000000      1.00000000      1.00000000      1.00000000      1.00000000      1.00000000      1.00000000      1.00000000      1.00000000      1.00000000      1.00000000      1.00000000      1.00000000      1.00000000      1.00000000      1.00000000
      1.00000000</v>
    <i name="NUPDOWN">     -1.00000000</i>
    <i type="logical" name="LSORBIT"> F  </i>
    <v name="SAXIS">      0.00000000      0.00000000      1.00000000</v>
    <i type="logical" name="LSPIRAL"> F  </i>
    <v name="QSPIRAL">      0.00000000      0.00000000      0.00000000</v>
    <i type="logical" name="LZEROZ"> F  </i>
   </separator>
   <separator name="electronic exchange-correlation" >
    <i type="logical" name="LASPH"> F  </i>
    <i type="logical" name="LMETAGGA"> F  </i>
   </separator>
   <separator name="electronic convergence" >
    <i type="int" name="NELM">    60</i>
    <i type="int" name="NELMDL">    -4</i>
    <i type="int" name="NELMIN">     4</i>
    <i name="ENINI">    400.00000000</i>
    <separator name="electronic convergence detail" >
     <i type="logical" name="LDIAG"> T  </i>
     <i type="logical" name="LSUBROT"> F  </i>
     <i name="WEIMIN">      0.00000000</i>
     <i name="EBREAK">      0.00000000</i>
     <i name="DEPER">      0.30000000</i>
     <i type="int" name="NRMM">     4</i>
     <i name="TIME">      0.40000000</i>
    </separator>
   </separator>
   <separator name="electronic mixer" >
    <i name="AMIX">      0.40000000</i>
    <i name="BMIX">      1.00000000</i>
    <i name="AMIN">      0.10000000</i>
    <i name="AMIX_MAG">      1.60000000</i>
    <i name="BMIX_MAG">      1.00000000</i>
    <separator name="electronic mixer details" >
     <i type="int" name="IMIX">     4</i>
     <i type="logical" name="MIXFIRST"> F  </i>
     <i type="int" name="MAXMIX">   -45</i>
     <i name="WC">    100.00000000</i>
     <i type="int" name="INIMIX">     1</i>
     <i type="int" name="MIXPRE">     1</i>
     <i type="int" name="MREMOVE">     5</i>
    </separator>
   </separator>
   <separator name="electronic dipolcorrection" >
    <i type="logical" name="LDIPOL"> F  </i>
    <i type="logical" name="LMONO"> F  </i>
    <i type="int" name="IDIPOL">     0</i>
    <i name="EPSILON">      1.00000000</i>
    <v name="DIPOL">   -100.00000000   -100.00000000   -100.00000000</v>
    <i name="EFIELD">      0.00000000</i>
   </separator>
  </separator>
  <separator name="grids" >
   <i type="int" name="NGX">    42</i>
   <i type="int" name="NGY">    42</i>
   <i type="int" name="NGZ">   108</i>
   <i type="int" name="NGXF">    84</i>
   <i type="int" name="NGYF">    84</i>
   <i type="int" name="NGZF">   216</i>
   <i type="logical" name="ADDGRID"> F  </i>
  </separator>
  <separator name="ionic" >
   <i type="int" name="NSW">     0</i>
   <i type="int" name="IBRION">    -1</i>
   <i type="int" name="ISIF">     2</i>
   <i name="PSTRESS">      0.00000000</i>
   <i name="EDIFFG">      0.00001000</i>
   <i type="int" name="NFREE">     0</i>
   <i name="POTIM">      0.50000000</i>
   <i name="SMASS">     -3.00000000</i>
   <i name="SCALEE">      1.00000000</i>
  </separator>
  <separator name="ionic md" >
   <i name="TEBEG">      0.00010000</i>
   <i name="TEEND">      0.00010000</i>
   <i type="int" name="NBLOCK">     1</i>
   <i type="int" name="KBLOCK">     1</i>
   <i type="int" name="NPACO">   256</i>
   <i name="APACO">     16.00000000</i>
  </separator>
  <separator name="symmetry" >
   <i type="int" name="ISYM">     2</i>
   <i name="SYMPREC">      0.00001000</i>
  </separator>
  <separator name="dos" >
   <i type="logical" name="LORBIT"> F  </i>
   <v name="RWIGS">     -1.00000000     -1.00000000     -1.00000000</v>
   <i type="int" name="NEDOS">   301</i>
   <i name="EMIN">     10.00000000</i>
   <i name="EMAX">    -10.00000000</i>
   <i name="EFERMI">      0.00000000</i>
  </separator>
  <separator name="writing" >
   <i type="int" name="NWRITE">     2</i>
   <i type="logical" name="LWAVE"> F  </i>
   <i type="logical" name="LCHARG"> F  </i>
   <i type="logical" name="LPARD"> F  </i>
   <i type="logical" name="LVTOT"> F  </i>
   <i type="logical" name="LVHAR"> F  </i>
   <i type="logical" name="LELF"> F  </i>
   <i type="logical" name="LOPTICS"> F  </i>
   <v name="STM">      0.00000000      0.00000000      0.00000000      0.00000000      0.00000000      0.00000000      0.00000000</v>
  </separator>
  <separator name="performance" >
   <i type="int" name="NPAR">     5</i>
   <i type="int" name="NSIM">     4</i>
   <i type="int" name="NBLK">    -1</i>
   <i type="logical" name="LPLANE"> T  </i>
   <i type="logical" name="LSCALAPACK"> T  </i>
   <i type="logical" name="LSCAAWARE"> F  </i>
   <i type="logical" name="LSCALU"> F  </i>
   <i type="logical" name="LASYNC"> F  </i>
   <i type="logical" name="LORBITALREAL"> F  </i>
  </separator>
  <separator name="miscellaneous" >
   <i type="int" name="IDIOT">     3</i>
   <i type="logical" name="LMUSIC"> F  </i>
   <v name="POMASS">    195.08000000     12.01100000      1.00000000</v>
   <v name="DARWINR">      0.00000000      0.00000000      0.00000000</v>
   <v name="DARWINV">      1.00000000      1.00000000      1.00000000</v>
   <i type="logical" name="LCORR"> T  </i>
  </separator>
  <i type="logical" name="GGA_COMPAT"> T  </i>
  <i type="logical" name="LBERRY"> F  </i>
  <i type="int" name="ICORELEVEL">     0</i>
  <i type="logical" name="LDAU"> F  </i>
  <i type="int" name="I_CONSTRAINED_M">     0</i>
  <separator name="electronic exchange-correlation" >
   <i type="string" name="GGA">PE</i>
   <i type="int" name="VOSKOWN">     0</i>
   <i type="logical" name="LHFCALC"> F  </i>
   <i type="string" name="PRECFOCK"></i>
   <i type="logical" name="LSYMGRAD"> F  </i>
   <i type="logical" name="LHFONE"> F  </i>
   <i type="logical" name="LRHFCALC"> F  </i>
   <i type="logical" name="LTHOMAS"> F  </i>
   <i type="logical" name="LMODELHF"> F  </i>
   <i name="ENCUT4O">     -1.00000000</i>
   <i type="int" name="EXXOEP">     0</i>
   <i type="int" name="FOURORBIT">     0</i>
   <i name="AEXX">      0.00000000</i>
   <i name="HFALPHA">      0.00000000</i>
   <i name="MCALPHA">      0.00000000</i>
   <i name="ALDAX">      1.00000000</i>
   <i name="AGGAX">      1.00000000</i>
   <i name="ALDAC">      1.00000000</i>
   <i name="AGGAC">      1.00000000</i>
   <i type="int" name="NKREDX">     1</i>
   <i type="int" name="NKREDY">     1</i>
   <i type="int" name="NKREDZ">     1</i>
   <i type="logical" name="SHIFTRED"> F  </i>
   <i type="logical" name="ODDONLY"> F  </i>
   <i type="logical" name="EVENONLY"> F  </i>
   <i type="int" name="LMAXFOCK">     0</i>
   <i type="int" name="NMAXFOCKAE">     0</i>
   <i type="logical" name="LFOCKAEDFT"> F  </i>
   <i name="HFSCREEN">      0.00000000</i>
   <i name="HFSCREENC">      0.00000000</i>
   <i type="int" name="NBANDSGWLOW">     0</i>
  </separator>
  <separator name="vdW DFT" >
   <i type="logical" name="LUSE_VDW"> F  </i>
   <i name="Zab_VDW">     -0.84910000</i>
   <i name="PARAM1">      0.12340000</i>
   <i name="PARAM2">      1.00000000</i>
   <i name="PARAM3">      0.00000000</i>
  </separator>
  <separator name="model GW" >
   <i type="int" name="MODEL_GW">     0</i>
   <i name="MODEL_EPS0">     19.66365590</i>
   <i name="MODEL_ALPHA">      1.00000000</i>
  </separator>
  <separator name="linear response parameters" >
   <i type="logical" name="LEPSILON"> F  </i>
   <i type="logical" name="LRPA"> F  </i>
   <i type="logical" name="LNABLA"> F  </i>
   <i type="logical" name="LVEL"> F  </i>
   <i type="int" name="KINTER">     0</i>
   <i name="CSHIFT">      0.10000000</i>
   <i name="OMEGAMAX">     -1.00000000</i>
   <i name="DEG_THRESHOLD">      0.00200000</i>
  </separator>
  <separator name="orbital magnetization" >
   <i type="logical" name="NUCIND"> F  </i>
   <v name="MAGPOS">      0.00000000      0.00000000      0.00000000</v>
   <i type="logical" name="LNICSALL"> T  </i>
   <i type="logical" name="ORBITALMAG"> F  </i>
   <i type="logical" name="LMAGBLOCH"> F  </i>
   <i type="logical" name="LCHIMAG"> F  </i>
   <i type="logical" name="LGAUGE"> T  </i>
   <i type="int" name="MAGATOM">     0</i>
   <v name="MAGDIPOL">      0.00000000      0.00000000      0.00000000</v>
   <v name="AVECCONST">      0.00000000      0.00000000      0.00000000</v>
  </separator>
  <separator name="response functions" >
   <i type="logical" name="LADDER"> F  </i>
   <i type="logical" name="LFXC"> F  </i>
   <i type="logical" name="LHARTREE"> T  </i>
   <i type="int" name="IBSE">     0</i>
   <v type="int" name="KPOINT">    -1     0     0     0</v>
   <i type="logical" name="LTCTE"> F  </i>
   <i type="logical" name="LTETE"> F  </i>
   <i type="logical" name="LTRIPLET"> F  </i>
   <i type="logical" name="LFXCEPS"> F  </i>
   <i type="logical" name="LFXHEG"> F  </i>
   <i type="int" name="NATURALO">     0</i>
   <i type="logical" name="L2ORDER"> F  </i>
   <i type="logical" name="LUSEW"> F  </i>
   <i name="ENCUTGW">     -2.00000000</i>
   <i name="ENCUTGWSOFT">     -2.00000000</i>
   <i name="ENCUTLF">     -1.00000000</i>
   <i type="int" name="LMAXMP2">    -1</i>
   <i name="SCISSOR">      0.00000000</i>
   <i type="int" name="NOMEGA">     0</i>
   <i type="int" name="NOMEGAR">     0</i>
   <i type="int" name="NBANDSGW">    -1</i>
   <i type="int" name="NBANDSO">    -1</i>
   <i type="int" name="NBANDSV">    -1</i>
   <i type="int" name="NELM">     1</i>
   <i type="int" name="NELMHF">     1</i>
   <i type="int" name="DIM">     3</i>
   <i type="int" name="ANTIRES">     0</i>
   <i name="OMEGAMAX">    -30.00000000</i>
   <i name="OMEGAMIN">    -30.00000000</i>
   <i name="OMEGATL">   -200.00000000</i>
   <i type="int" name="OMEGAGRID">     0</i>
   <i name="CSHIFT">     -0.10000000</i>
   <i type="logical" name="SELFENERGY"> F  </i>
   <i type="logical" name="LSPECTRAL"> F  </i>
   <i type="logical" name="LSPECTRALGW"> F  </i>
   <i type="logical" name="LSINGLES"> F  </i>
   <i type="logical" name="LFERMIGW"> F  </i>
   <i type="logical" name="ODDONLYGW"> F  </i>
   <i type="logical" name="EVENONLYGW"> F  </i>
   <i type="int" name="NKREDLFX">     1</i>
   <i type="int" name="NKREDLFY">     1</i>
   <i type="int" name="NKREDLFZ">     1</i>
   <i type="int" name="MAXMEM">  1800</i>
   <i type="int" name="TELESCOPE">     0</i>
   <i type="int" name="TAUPAR">     1</i>
   <i type="int" name="OMEGAPAR">    -1</i>
   <i name="LAMBDA">      1.00000000</i>
  </separator>
  <separator name="External order field" >
   <i name="OFIELD_KAPPA">      0.00000000</i>
   <v name="OFIELD_K">      0.00000000      0.00000000      0.00000000</v>
   <i name="OFIELD_Q6_NEAR">      0.00000000</i>
   <i name="OFIELD_Q6_FAR">      0.00000000</i>
   <i name="OFIELD_A">      0.00000000</i>
  </separator>
 </parameters>
 <atominfo>
  <atoms>      41 </atoms>
  <types>       3 </types>
  <array name="atoms" >
   <dimension dim="1">ion</dimension>
   <field type="string">element</field>
   <field type="int">atomtype</field>
   <set>
    <rc><c>Pt</c><c>   1</c></rc>
    <rc><c>Pt</c><c>   1</c></rc>
    <rc><c>Pt</c><c>   1</c></rc>
    <rc><c>Pt</c><c>   1</c></rc>
    <rc><c>Pt</c><c>   1</c></rc>
    <rc><c>Pt</c><c>   1</c></rc>
    <rc><c>Pt</c><c>   1</c></rc>
    <rc><c>Pt</c><c>   1</c></rc>
    <rc><c>Pt</c><c>   1</c></rc>
    <rc><c>Pt</c><c>   1</c></rc>
    <rc><c>Pt</c><c>   1</c></rc>
    <rc><c>Pt</c><c>   1</c></rc>
    <rc><c>Pt</c><c>   1</c></rc>
    <rc><c>Pt</c><c>   1</c></rc>
    <rc><c>Pt</c><c>   1</c></rc>
    <rc><c>Pt</c><c>   1</c></rc>
    <rc><c>Pt</c><c>   1</c></rc>
    <rc><c>Pt</c><c>   1</c></rc>
    <rc><c>Pt</c><c>   1</c></rc>
    <rc><c>Pt</c><c>   1</c></rc>
    <rc><c>Pt</c><c>   1</c></rc>
    <rc><c>Pt</c><c>   1</c></rc>
    <rc><c>Pt</c><c>   1</c></rc>
    <rc><c>Pt</c><c>   1</c></rc>
    <rc><c>Pt</c><c>   1</c></rc>
    <rc><c>Pt</c><c>   1</c></rc>
    <rc><c>Pt</c><c>   1</c></rc>
    <rc><c>Pt</c><c>   1</c></rc>
    <rc><c>Pt</c><c>   1</c></rc>
    <rc><c>Pt</c><c>   1</c></rc>
    <rc><c>Pt</c><c>   1</c></rc>
    <rc><c>Pt</c><c>   1</c></rc>
    <rc><c>Pt</c><c>   1</c></rc>
    <rc><c>Pt</c><c>   1</c></rc>
    <rc><c>Pt</c><c>   1</c></rc>
    <rc><c>Pt</c><c>   1</c></rc>
    <rc><c>C </c><c>   2</c></rc>
    <rc><c>C </c><c>   2</c></rc>
    <rc><c>H </c><c>   3</c></rc>
    <rc><c>H </c><c>   3</c></rc>
    <rc><c>H </c><c>   3</c></rc>
   </set>
  </array>
  <array name="atomtypes" >
   <dimension dim="1">type</dimension>
   <field type="int">atomspertype</field>
   <field type="string">element</field>
   <field>mass</field>
   <field>valence</field>
   <field type="string">pseudopotential</field>
   <set>
    <rc><c>  36</c><c>Pt</c><c>    195.08000000</c><c>     10.00000000</c><c>  PAW_PBE Pt 04Feb2005                  </c></rc>
    <rc><c>   2</c><c>C </c><c>     12.01100000</c><c>      4.00000000</c><c>  PAW_PBE C 08Apr2002                   </c></rc>
    <rc><c>   3</c><c>H </c><c>      1.00000000</c><c>      1.00000000</c><c>  PAW_PBE H 15Jun2001                   </c></rc>
   </set>
  </array>
 </atominfo>
 <structure name="initialpos" >
  <crystal>
   <varray name="basis" >
    <v>       8.42164176       0.00000000       0.00000000 </v>
    <v>       4.21082088       7.29335571       0.00000000 </v>
    <v>       0.00000000       0.00000000      21.87624171 </v>
   </varray>
   <i name="volume">   1343.68315334 </i>
   <varray name="rec_basis" >
    <v>       0.11874169      -0.06855555       0.00000000 </v>
    <v>       0.00000000       0.13711110       0.00000000 </v>
    <v>       0.00000000       0.00000000       0.04571169 </v>
   </varray>
  </crystal>
  <varray name="positions" >
   <v>       0.00000000       0.00000000       0.34283768 </v>
   <v>       0.33333333       0.00000000       0.34283768 </v>
   <v>       0.66666667       0.00000000       0.34283768 </v>
   <v>       0.00000000       0.33333333       0.34283768 </v>
   <v>       0.33333333       0.33333333       0.34283768 </v>
   <v>       0.66666667       0.33333333       0.34283768 </v>
   <v>       0.00000000       0.66666667       0.34283768 </v>
   <v>       0.33333333       0.66666667       0.34283768 </v>
   <v>       0.66666667       0.66666667       0.34283768 </v>
   <v>       0.11111111       0.11111111       0.44761256 </v>
   <v>       0.44444444       0.11111111       0.44761256 </v>
   <v>       0.77777778       0.11111111       0.44761256 </v>
   <v>       0.11111111       0.44444444       0.44761256 </v>
   <v>       0.44444444       0.44444444       0.44761256 </v>
   <v>       0.77777778       0.44444444       0.44761256 </v>
   <v>       0.11111111       0.77777778       0.44761256 </v>
   <v>       0.44444444       0.77777778       0.44761256 </v>
   <v>       0.77777778       0.77777778       0.44761256 </v>
   <v>       0.88495693       0.22522187       0.55203879 </v>
   <v>       0.22142843       0.22508370       0.55204766 </v>
   <v>       0.55316765       0.22504588       0.55228202 </v>
   <v>       0.88732204       0.55715353       0.55098682 </v>
   <v>       0.22156970       0.55690302       0.55232248 </v>
   <v>       0.55311842       0.55702508       0.55228514 </v>
   <v>       0.88737411       0.89103991       0.55098513 </v>
   <v>       0.22130356       0.88901819       0.55213548 </v>
   <v>       0.55341960       0.89089348       0.55101330 </v>
   <v>       0.99622335       0.00444926       0.65642153 </v>
   <v>       0.32961233       0.00450581       0.65643461 </v>
   <v>       0.66457578       0.00034614       0.65615278 </v>
   <v>       0.99626747       0.33770696       0.65642370 </v>
   <v>       0.32684417       0.33590312       0.66279513 </v>
   <v>       0.66737072       0.33519004       0.66256045 </v>
   <v>       0.99219393       0.67310349       0.65610779 </v>
   <v>       0.32719979       0.67593348       0.66275721 </v>
   <v>       0.66505305       0.67263577       0.65616044 </v>
   <v>       0.44073605       0.44906727       0.71499572 </v>
   <v>       0.44117200       0.44887069       0.78320827 </v>
   <v>       0.29980087       0.52466216       0.80082555 </v>
   <v>       0.50692803       0.30738149       0.80071518 </v>
   <v>       0.51705811       0.51453485       0.80072640 </v>
  </varray>
  <varray name="selective"  type="logical" >
   <v type="logical" >  F  F  F </v>
   <v type="logical" >  F  F  F </v>
   <v type="logical" >  F  F  F </v>
   <v type="logical" >  F  F  F </v>
   <v type="logical" >  F  F  F </v>
   <v type="logical" >  F  F  F </v>
   <v type="logical" >  F  F  F </v>
   <v type="logical" >  F  F  F </v>
   <v type="logical" >  F  F  F </v>
   <v type="logical" >  F  F  F </v>
   <v type="logical" >  F  F  F </v>
   <v type="logical" >  F  F  F </v>
   <v type="logical" >  F  F  F </v>
   <v type="logical" >  F  F  F </v>
   <v type="logical" >  F  F  F </v>
   <v type="logical" >  F  F  F </v>
   <v type="logical" >  F  F  F </v>
   <v type="logical" >  F  F  F </v>
   <v type="logical" >  T  T  T </v>
   <v type="logical" >  T  T  T </v>
   <v type="logical" >  T  T  T </v>
   <v type="logical" >  T  T  T </v>
   <v type="logical" >  T  T  T </v>
   <v type="logical" >  T  T  T </v>
   <v type="logical" >  T  T  T </v>
   <v type="logical" >  T  T  T </v>
   <v type="logical" >  T  T  T </v>
   <v type="logical" >  T  T  T </v>
   <v type="logical" >  T  T  T </v>
   <v type="logical" >  T  T  T </v>
   <v type="logical" >  T  T  T </v>
   <v type="logical" >  T  T  T </v>
   <v type="logical" >  T  T  T </v>
   <v type="logical" >  T  T  T </v>
   <v type="logical" >  T  T  T </v>
   <v type="logical" >  T  T  T </v>
   <v type="logical" >  T  T  T </v>
   <v type="logical" >  T  T  T </v>
   <v type="logical" >  T  T  T </v>
   <v type="logical" >  T  T  T </v>
   <v type="logical" >  T  T  T </v>
  </varray>
  <nose>
   <v>      -3.00000000       0.00000000       0.00010000       0.00010000 </v>
  </nose>
 </structure>
 <calculation>
  <scstep>
   <time name="dav">  255.91  257.16</time>
   <time name="total">  256.40  257.67</time>
   <energy>
    <i name="alphaZ">    958.22283780 </i>
    <i name="ewald">  91113.90556670 </i>
    <i name="hartreedc">-119556.20178321 </i>
    <i name="XCdc">    154.45961156 </i>
    <i name="pawpsdc">  25283.89345048 </i>
    <i name="pawaedc"> -24266.86223937 </i>
    <i name="eentropy">     -0.56118836 </i>
    <i name="bandstr">   1927.67616813 </i>
    <i name="atom">  26579.72061084 </i>
    <i name="e_fr_energy">   2194.25303457 </i>
    <i name="e_wo_entrp">   2194.81422294 </i>
    <i name="e_0_energy">   2194.53362875 </i>
   </energy>
  </scstep>
  <scstep>
   <time name="dav">  293.89  297.27</time>
   <time name="total">  293.90  297.36</time>
   <energy>
    <i name="e_fr_energy">    -91.67854921 </i>
    <i name="e_wo_entrp">    -90.58912760 </i>
    <i name="e_0_energy">    -91.13383840 </i>
   </energy>
  </scstep>
  <scstep>
   <time name="dav">  299.24  299.99</time>
   <time name="total">  299.25  300.03</time>
   <energy>
    <i name="e_fr_energy">   -250.30117954 </i>
    <i name="e_wo_entrp">   -248.42553173 </i>
    <i name="e_0_energy">   -249.36335563 </i>
   </energy>
  </scstep>
  <scstep>
   <time name="dav">  308.74  311.57</time>
   <time name="total">  310.80  313.88</time>
   <energy>
    <i name="e_fr_energy">   -256.99902444 </i>
    <i name="e_wo_entrp">   -255.07283427 </i>
    <i name="e_0_energy">   -256.03592935 </i>
   </energy>
  </scstep>
  <scstep>
   <time name="diag">   18.93   18.97</time>
   <time name="diis">   83.83   84.04</time>
   <time name="orth">    6.80    6.87</time>
   <time name="total">  111.80  112.22</time>
   <energy>
    <i name="e_fr_energy">   -244.88310900 </i>
    <i name="e_wo_entrp">   -242.88220004 </i>
    <i name="e_0_energy">   -243.88265452 </i>
   </energy>
  </scstep>
  <scstep>
   <time name="diag">   19.32   19.47</time>
   <time name="diis">   80.70   80.91</time>
   <time name="orth">    6.72    6.77</time>
   <time name="total">  109.21  109.67</time>
   <energy>
    <i name="e_fr_energy">   -287.80191241 </i>
    <i name="e_wo_entrp">   -286.62833178 </i>
    <i name="e_0_energy">   -287.21512210 </i>
   </energy>
  </scstep>
  <scstep>
   <time name="diag">   20.69   20.97</time>
   <time name="diis">   84.04   84.88</time>
   <time name="orth">    6.92    6.97</time>
   <time name="total">  114.34  115.80</time>
   <energy>
    <i name="e_fr_energy">   -246.59390755 </i>
    <i name="e_wo_entrp">   -244.92544180 </i>
    <i name="e_0_energy">   -245.75967467 </i>
   </energy>
  </scstep>
  <scstep>
   <time name="diag">   20.17   20.19</time>
   <time name="diis">   81.43   81.99</time>
   <time name="orth">    6.81    6.81</time>
   <time name="total">  110.90  111.66</time>
   <energy>
    <i name="e_fr_energy">   -252.95125954 </i>
    <i name="e_wo_entrp">   -251.62625026 </i>
    <i name="e_0_energy">   -252.28875490 </i>
   </energy>
  </scstep>
  <scstep>
   <time name="diag">   19.77   19.95</time>
   <time name="diis">   84.47   85.92</time>
   <time name="orth">    6.74    6.75</time>
   <time name="total">  113.17  114.82</time>
   <energy>
    <i name="e_fr_energy">   -248.19928365 </i>
    <i name="e_wo_entrp">   -246.37201157 </i>
    <i name="e_0_energy">   -247.28564761 </i>
   </energy>
  </scstep>
  <scstep>
   <time name="diag">   19.87   19.89</time>
   <time name="diis">   76.89   77.46</time>
   <time name="orth">    6.84    6.88</time>
   <time name="total">  105.74  106.42</time>
   <energy>
    <i name="e_fr_energy">   -240.04400734 </i>
    <i name="e_wo_entrp">   -238.04775258 </i>
    <i name="e_0_energy">   -239.04587996 </i>
   </energy>
  </scstep>
  <scstep>
   <time name="diag">   20.18   20.27</time>
   <time name="diis">   81.96   82.07</time>
   <time name="orth">    6.77    6.83</time>
   <time name="total">  112.10  112.38</time>
   <energy>
    <i name="e_fr_energy">   -239.61186916 </i>
    <i name="e_wo_entrp">   -237.54886169 </i>
    <i name="e_0_energy">   -238.58036543 </i>
   </energy>
  </scstep>
  <scstep>
   <time name="diag">   19.68   19.70</time>
   <time name="diis">   83.32   84.45</time>
   <time name="orth">    6.71    6.75</time>
   <time name="total">  112.18  113.51</time>
   <energy>
    <i name="e_fr_energy">   -239.29403784 </i>
    <i name="e_wo_entrp">   -237.22343958 </i>
    <i name="e_0_energy">   -238.25873871 </i>
   </energy>
  </scstep>
  <scstep>
   <time name="diag">   30.45   30.86</time>
   <time name="diis">   81.88   83.02</time>
   <time name="orth">    6.95    6.99</time>
   <time name="total">  123.06  124.90</time>
   <energy>
    <i name="e_fr_energy">   -239.17247930 </i>
    <i name="e_wo_entrp">   -237.10835810 </i>
    <i name="e_0_energy">   -238.14041870 </i>
   </energy>
  </scstep>
  <scstep>
   <time name="diag">   20.49   20.68</time>
   <time name="diis">   84.62   85.98</time>
   <time name="orth">    6.81    6.90</time>
   <time name="total">  114.10  115.89</time>
   <energy>
    <i name="e_fr_energy">   -239.16411080 </i>
    <i name="e_wo_entrp">   -237.10949223 </i>
    <i name="e_0_energy">   -238.13680152 </i>
   </energy>
  </scstep>
  <scstep>
   <time name="diag">   20.40   20.42</time>
   <time name="diis">   89.19   89.66</time>
   <time name="orth">    6.89    6.90</time>
   <time name="total">  118.77  119.40</time>
   <energy>
    <i name="e_fr_energy">   -239.13816529 </i>
    <i name="e_wo_entrp">   -237.07324029 </i>
    <i name="e_0_energy">   -238.10570279 </i>
   </energy>
  </scstep>
  <scstep>
   <time name="diag">   20.44   20.44</time>
   <time name="diis">   87.14   87.20</time>
   <time name="orth">    6.84    6.87</time>
   <time name="total">  117.41  117.53</time>
   <energy>
    <i name="e_fr_energy">   -239.13225470 </i>
    <i name="e_wo_entrp">   -237.06096785 </i>
    <i name="e_0_energy">   -238.09661128 </i>
   </energy>
  </scstep>
  <scstep>
   <time name="diag">   20.09   20.31</time>
   <time name="diis">   88.45   88.95</time>
   <time name="orth">    6.88    6.91</time>
   <time name="total">  118.78  120.12</time>
   <energy>
    <i name="e_fr_energy">   -239.12812069 </i>
    <i name="e_wo_entrp">   -237.05590828 </i>
    <i name="e_0_energy">   -238.09201448 </i>
   </energy>
  </scstep>
  <scstep>
   <time name="diag">   20.40   20.58</time>
   <time name="diis">   81.52   83.25</time>
   <time name="orth">    6.72    6.75</time>
   <time name="total">  111.58  113.91</time>
   <energy>
    <i name="e_fr_energy">   -239.12723902 </i>
    <i name="e_wo_entrp">   -237.05653443 </i>
    <i name="e_0_energy">   -238.09188672 </i>
   </energy>
  </scstep>
  <scstep>
   <time name="diag">   20.57   20.75</time>
   <time name="diis">   81.72   82.42</time>
   <time name="orth">    7.29    7.61</time>
   <time name="total">  112.70  114.17</time>
   <energy>
    <i name="e_fr_energy">   -239.12669920 </i>
    <i name="e_wo_entrp">   -237.05595240 </i>
    <i name="e_0_energy">   -238.09132580 </i>
   </energy>
  </scstep>
  <scstep>
   <time name="diag">   19.77   19.80</time>
   <time name="diis">   84.94   85.33</time>
   <time name="orth">    6.98    7.16</time>
   <time name="total">  114.17  114.80</time>
   <energy>
    <i name="e_fr_energy">   -239.12656123 </i>
    <i name="e_wo_entrp">   -237.05629196 </i>
    <i name="e_0_energy">   -238.09142660 </i>
   </energy>
  </scstep>
  <scstep>
   <time name="diag">   20.39   20.39</time>
   <time name="diis">   88.30   88.83</time>
   <time name="orth">    6.81    6.92</time>
   <time name="total">  117.89  118.74</time>
   <energy>
    <i name="e_fr_energy">   -239.12652005 </i>
    <i name="e_wo_entrp">   -237.05644989 </i>
    <i name="e_0_energy">   -238.09148497 </i>
   </energy>
  </scstep>
  <scstep>
   <time name="diag">   20.12   20.14</time>
   <time name="diis">   80.76   81.33</time>
   <time name="orth">    6.81    6.91</time>
   <time name="total">  110.31  111.02</time>
   <energy>
    <i name="e_fr_energy">   -239.12654787 </i>
    <i name="e_wo_entrp">   -237.05629098 </i>
    <i name="e_0_energy">   -238.09141943 </i>
   </energy>
  </scstep>
  <scstep>
   <time name="diag">   20.96   21.03</time>
   <time name="diis">   85.62   86.53</time>
   <time name="orth">    7.01    7.11</time>
   <time name="total">  116.53  117.67</time>
   <energy>
    <i name="e_fr_energy">   -239.12667461 </i>
    <i name="e_wo_entrp">   -237.05604423 </i>
    <i name="e_0_energy">   -238.09135942 </i>
   </energy>
  </scstep>
  <scstep>
   <time name="diag">   21.77   21.83</time>
   <time name="diis">   81.17   82.12</time>
   <time name="orth">    6.88    7.00</time>
   <time name="total">  112.29  113.72</time>
   <energy>
    <i name="e_fr_energy">   -239.12704458 </i>
    <i name="e_wo_entrp">   -237.05591779 </i>
    <i name="e_0_energy">   -238.09148118 </i>
   </energy>
  </scstep>
  <scstep>
   <time name="diag">   20.72   20.74</time>
   <time name="diis">   84.69   85.37</time>
   <time name="orth">    6.99    7.11</time>
   <time name="total">  115.70  116.58</time>
   <energy>
    <i name="e_fr_energy">   -239.12715297 </i>
    <i name="e_wo_entrp">   -237.05614845 </i>
    <i name="e_0_energy">   -238.09165071 </i>
   </energy>
  </scstep>
  <scstep>
   <time name="diag">   22.62   22.88</time>
   <time name="diis">   87.38   88.56</time>
   <time name="orth">    6.85    6.89</time>
   <time name="total">  119.58  121.15</time>
   <energy>
    <i name="e_fr_energy">   -239.12747944 </i>
    <i name="e_wo_entrp">   -237.05700507 </i>
    <i name="e_0_energy">   -238.09224226 </i>
   </energy>
  </scstep>
  <scstep>
   <time name="diag">   20.82   20.84</time>
   <time name="diis">   85.05   86.02</time>
   <time name="orth">    6.72    6.80</time>
   <time name="total">  115.36  116.87</time>
   <energy>
    <i name="e_fr_energy">   -239.12767089 </i>
    <i name="e_wo_entrp">   -237.05723251 </i>
    <i name="e_0_energy">   -238.09245170 </i>
   </energy>
  </scstep>
  <scstep>
   <time name="diag">   20.40   20.40</time>
   <time name="diis">   71.07   71.50</time>
   <time name="orth">    6.81    6.86</time>
   <time name="total">  101.41  102.03</time>
   <energy>
    <i name="e_fr_energy">   -239.12785307 </i>
    <i name="e_wo_entrp">   -237.05735539 </i>
    <i name="e_0_energy">   -238.09260423 </i>
   </energy>
  </scstep>
  <scstep>
   <time name="diag">   21.06   21.06</time>
   <time name="diis">   64.62   65.37</time>
   <time name="orth">    6.83    6.89</time>
   <time name="total">   95.58   96.43</time>
   <energy>
    <i name="e_fr_energy">   -239.12800618 </i>
    <i name="e_wo_entrp">   -237.05744796 </i>
    <i name="e_0_energy">   -238.09272707 </i>
   </energy>
  </scstep>
  <scstep>
   <time name="diag">   20.30   20.40</time>
   <time name="diis">   62.04   62.81</time>
   <time name="orth">    6.65    6.81</time>
   <time name="total">   91.42   92.58</time>
   <energy>
    <i name="e_fr_energy">   -239.12819759 </i>
    <i name="e_wo_entrp">   -237.05751786 </i>
    <i name="e_0_energy">   -238.09285773 </i>
   </energy>
  </scstep>
  <scstep>
   <time name="diag">   20.61   20.60</time>
   <time name="diis">   58.94   59.18</time>
   <time name="orth">    6.99    7.07</time>
   <time name="total">   89.28   89.75</time>
   <energy>
    <i name="e_fr_energy">   -239.12825434 </i>
    <i name="e_wo_entrp">   -237.05758161 </i>
    <i name="e_0_energy">   -238.09291797 </i>
   </energy>
  </scstep>
  <scstep>
   <time name="diag">   21.94   21.93</time>
   <time name="diis">   53.75   54.24</time>
   <time name="orth">   11.39   11.44</time>
   <time name="total">   91.21   91.81</time>
   <energy>
    <i name="e_fr_energy">   -239.12832205 </i>
    <i name="e_wo_entrp">   -237.05766593 </i>
    <i name="e_0_energy">   -238.09299399 </i>
   </energy>
  </scstep>
  <scstep>
   <time name="diag">   24.06   24.19</time>
   <time name="diis">   52.52   53.36</time>
   <time name="orth">    6.94    6.98</time>
   <time name="total">   87.21   88.28</time>
   <energy>
    <i name="e_fr_energy">   -239.12834933 </i>
    <i name="e_wo_entrp">   -237.05768789 </i>
    <i name="e_0_energy">   -238.09301861 </i>
   </energy>
  </scstep>
  <scstep>
   <time name="diag">   21.84   22.56</time>
   <time name="diis">   52.43   52.91</time>
   <time name="orth">    6.95    7.09</time>
   <time name="total">   84.53   86.74</time>
   <energy>
    <i name="e_fr_energy">   -239.12836859 </i>
    <i name="e_wo_entrp">   -237.05770168 </i>
    <i name="e_0_energy">   -238.09303513 </i>
   </energy>
  </scstep>
  <scstep>
   <time name="diag">   20.27   20.27</time>
   <time name="diis">   49.76   49.81</time>
   <time name="orth">    6.80    6.87</time>
   <time name="total">   79.07   79.31</time>
   <energy>
    <i name="e_fr_energy">   -239.12837508 </i>
    <i name="e_wo_entrp">   -237.05771007 </i>
    <i name="e_0_energy">   -238.09304258 </i>
   </energy>
  </scstep>
  <scstep>
   <time name="diag">   20.26   20.26</time>
   <time name="diis">   46.91   46.96</time>
   <time name="orth">    6.80    6.84</time>
   <time name="total">   76.90   77.03</time>
   <energy>
    <i name="e_fr_energy">   -239.12838144 </i>
    <i name="e_wo_entrp">   -237.05772052 </i>
    <i name="e_0_energy">   -238.09305098 </i>
   </energy>
  </scstep>
  <scstep>
   <time name="diag">   20.53   20.56</time>
   <time name="diis">   44.87   45.35</time>
   <time name="orth">    6.89    6.97</time>
   <time name="total">   75.12   75.83</time>
   <energy>
    <i name="e_fr_energy">   -239.12838309 </i>
    <i name="e_wo_entrp">   -237.05772248 </i>
    <i name="e_0_energy">   -238.09305278 </i>
   </energy>
  </scstep>
  <scstep>
   <time name="diag">   22.85   22.91</time>
   <time name="diis">   41.74   41.98</time>
   <time name="orth">    6.71    6.77</time>
   <time name="total">   73.14   73.57</time>
   <energy>
    <i name="alphaZ">    958.22283780 </i>
    <i name="ewald">  91113.90556670 </i>
    <i name="hartreedc">-119287.86042598 </i>
    <i name="XCdc">    143.96185226 </i>
    <i name="pawpsdc">  32478.74750371 </i>
    <i name="pawaedc"> -31560.08225184 </i>
    <i name="eentropy">     -2.07066107 </i>
    <i name="bandstr">   -663.67341622 </i>
    <i name="atom">  26579.72061084 </i>
    <i name="e_fr_energy">   -239.12838381 </i>
    <i name="e_wo_entrp">   -237.05772273 </i>
    <i name="e_0_energy">   -238.09305327 </i>
   </energy>
  </scstep>
  <structure>
   <crystal>
    <varray name="basis" >
     <v>       8.42164176       0.00000000       0.00000000 </v>
     <v>       4.21082088       7.29335571       0.00000000 </v>
     <v>       0.00000000       0.00000000      21.87624171 </v>
    </varray>
    <i name="volume">   1343.68315334 </i>
    <varray name="rec_basis" >
     <v>       0.11874169      -0.06855555       0.00000000 </v>
     <v>       0.00000000       0.13711110       0.00000000 </v>
     <v>       0.00000000       0.00000000       0.04571169 </v>
    </varray>
   </crystal>
   <varray name="positions" >
    <v>       0.00000000       0.00000000       0.34283768 </v>
    <v>       0.33333333       0.00000000       0.34283768 </v>
    <v>       0.66666667       0.00000000       0.34283768 </v>
    <v>       0.00000000       0.33333333       0.34283768 </v>
    <v>       0.33333333       0.33333333       0.34283768 </v>
    <v>       0.66666667       0.33333333       0.34283768 </v>
    <v>       0.00000000       0.66666667       0.34283768 </v>
    <v>       0.33333333       0.66666667       0.34283768 </v>
    <v>       0.66666667       0.66666667       0.34283768 </v>
    <v>       0.11111111       0.11111111       0.44761256 </v>
    <v>       0.44444444       0.11111111       0.44761256 </v>
    <v>       0.77777778       0.11111111       0.44761256 </v>
    <v>       0.11111111       0.44444444       0.44761256 </v>
    <v>       0.44444444       0.44444444       0.44761256 </v>
    <v>       0.77777778       0.44444444       0.44761256 </v>
    <v>       0.11111111       0.77777778       0.44761256 </v>
    <v>       0.44444444       0.77777778       0.44761256 </v>
    <v>       0.77777778       0.77777778       0.44761256 </v>
    <v>       0.88495693       0.22522187       0.55203879 </v>
    <v>       0.22142843       0.22508370       0.55204766 </v>
    <v>       0.55316765       0.22504588       0.55228202 </v>
    <v>       0.88732204       0.55715353       0.55098682 </v>
    <v>       0.22156970       0.55690302       0.55232248 </v>
    <v>       0.55311842       0.55702508       0.55228514 </v>
    <v>       0.88737411       0.89103991       0.55098513 </v>
    <v>       0.22130356       0.88901819       0.55213548 </v>
    <v>       0.55341960       0.89089348       0.55101330 </v>
    <v>       0.99622335       0.00444926       0.65642153 </v>
    <v>       0.32961233       0.00450581       0.65643461 </v>
    <v>       0.66457578       0.00034614       0.65615278 </v>
    <v>       0.99626747       0.33770696       0.65642370 </v>
    <v>       0.32684417       0.33590312       0.66279513 </v>
    <v>       0.66737072       0.33519004       0.66256045 </v>
    <v>       0.99219393       0.67310349       0.65610779 </v>
    <v>       0.32719979       0.67593348       0.66275721 </v>
    <v>       0.66505305       0.67263577       0.65616044 </v>
    <v>       0.44073605       0.44906727       0.71499572 </v>
    <v>       0.44117200       0.44887069       0.78320827 </v>
    <v>       0.29980087       0.52466216       0.80082555 </v>
    <v>       0.50692803       0.30738149       0.80071518 </v>
    <v>       0.51705811       0.51453485       0.80072640 </v>
   </varray>
  </structure>
  <varray name="forces" >
   <v>      -0.01673932      -0.01624955      -0.04698825 </v>
   <v>       0.02361761      -0.01664876      -0.04687031 </v>
   <v>       0.00377106      -0.01359361      -0.06709393 </v>
   <v>       0.00311665       0.01948084      -0.04839417 </v>
   <v>       0.00413807      -0.00466717      -0.04940571 </v>
   <v>       0.00270740      -0.00497645      -0.04968568 </v>
   <v>      -0.00474723      -0.00187253      -0.06858444 </v>
   <v>       0.00341727      -0.00574920      -0.04919550 </v>
   <v>       0.01170759      -0.00260752      -0.06844390 </v>
   <v>      -0.00704478       0.01419196      -0.19326479 </v>
   <v>      -0.05192076       0.04539446       0.06813816 </v>
   <v>       0.03733657       0.04672168       0.06610018 </v>
   <v>      -0.00319533      -0.03788410       0.07434516 </v>
   <v>      -0.00772410       0.01498027       0.21441648 </v>
   <v>      -0.01056667      -0.03741928       0.07171497 </v>
   <v>       0.04438650       0.03772263       0.07669534 </v>
   <v>      -0.05854173       0.03997821       0.07567809 </v>
   <v>      -0.00722252       0.01709420       0.01555346 </v>
   <v>       0.00759583      -0.00559858       0.00877108 </v>
   <v>      -0.00139707      -0.00335877       0.00628939 </v>
   <v>      -0.00078728       0.00061822      -0.00244398 </v>
   <v>       0.00276895      -0.00532396       0.00684878 </v>
   <v>       0.00331899      -0.00391845       0.00233939 </v>
   <v>       0.00395065      -0.00103028       0.00374404 </v>
   <v>       0.00367705      -0.00575680       0.00767905 </v>
   <v>      -0.00239829      -0.00183602       0.00796198 </v>
   <v>       0.00108217      -0.00394459       0.00590968 </v>
   <v>       0.00258878      -0.00686979      -0.00330334 </v>
   <v>      -0.00252748      -0.00512779      -0.00303430 </v>
   <v>       0.00194535      -0.00974564       0.00034642 </v>
   <v>      -0.00058047      -0.00589229      -0.00602018 </v>
   <v>      -0.00530750      -0.00873598      -0.00562990 </v>
   <v>      -0.00038971      -0.00522767      -0.00294968 </v>
   <v>       0.00292235      -0.00436408       0.00191640 </v>
   <v>       0.00413803      -0.00491021      -0.00327848 </v>
   <v>       0.00436641      -0.00278828       0.00040538 </v>
   <v>       0.00319243      -0.00431265       0.00657825 </v>
   <v>       0.01457555       0.00445827       0.00212484 </v>
   <v>       0.00084443      -0.00525507      -0.00044874 </v>
   <v>       0.00359471       0.00024924       0.00087083 </v>
   <v>      -0.01367018      -0.00522492      -0.00939206 </v>
  </varray>
  <varray name="stress" >
   <v>     -42.91149888       0.04639257       0.12596258 </v>
   <v>       0.04639259     -42.62523814      -0.44635380 </v>
   <v>       0.12596261      -0.44635381      -0.53127658 </v>
  </varray>
  <energy>
   <i name="e_fr_energy">   -239.12838381 </i>
   <i name="e_wo_entrp">   -238.09305327 </i>
   <i name="e_0_energy">     -2.07066107 </i>
  </energy>
  <time name="totalsc"> 4796.03 4838.56</time>
  <eigenvalues>
   <array>
    <dimension dim="1">band</dimension>
    <dimension dim="2">kpoint</dimension>
    <dimension dim="3">spin</dimension>
    <field>eigene</field>
    <field>occ</field>
    <set>
     <set comment="spin 1">
      <set comment="kpoint 1">
       <r>  -13.0507    1.0000 </r>
       <r>   -9.3095    1.0000 </r>
       <r>   -7.7065    1.0000 </r>
       <r>   -6.3820    1.0000 </r>
       <r>   -5.5053    1.0000 </r>
       <r>   -5.4267    1.0000 </r>
       <r>   -5.3919    1.0000 </r>
       <r>   -5.3540    1.0000 </r>
       <r>   -5.2652    1.0000 </r>
       <r>   -5.2422    1.0000 </r>
       <r>   -5.2225    1.0000 </r>
       <r>   -5.1651    1.0000 </r>
       <r>   -5.0641    1.0000 </r>
       <r>   -5.0630    1.0000 </r>
       <r>   -4.8632    1.0000 </r>
       <r>   -4.7053    1.0000 </r>
       <r>   -4.6788    1.0000 </r>
       <r>   -4.6689    1.0000 </r>
       <r>   -4.6104    1.0000 </r>
       <r>   -4.5883    1.0000 </r>
       <r>   -4.5684    1.0000 </r>
       <r>   -4.2137    1.0000 </r>
       <r>   -4.2015    1.0000 </r>
       <r>   -4.1897    1.0000 </r>
       <r>   -4.1314    1.0000 </r>
       <r>   -4.1129    1.0000 </r>
       <r>   -4.0744    1.0000 </r>
       <r>   -4.0300    1.0000 </r>
       <r>   -3.9935    1.0000 </r>
       <r>   -3.9512    1.0000 </r>
       <r>   -3.8693    1.0000 </r>
       <r>   -3.8669    1.0000 </r>
       <r>   -3.8317    1.0000 </r>
       <r>   -3.8102    1.0000 </r>
       <r>   -3.7970    1.0000 </r>
       <r>   -3.7757    1.0000 </r>
       <r>   -3.7630    1.0000 </r>
       <r>   -3.7240    1.0000 </r>
       <r>   -3.7207    1.0000 </r>
       <r>   -3.7057    1.0000 </r>
       <r>   -3.6893    1.0000 </r>
       <r>   -3.6598    1.0000 </r>
       <r>   -3.5436    1.0000 </r>
       <r>   -3.5274    1.0000 </r>
       <r>   -3.2759    1.0000 </r>
       <r>   -3.1262    1.0000 </r>
       <r>   -3.1212    1.0000 </r>
       <r>   -3.1012    1.0000 </r>
       <r>   -3.0940    1.0000 </r>
       <r>   -3.0770    1.0000 </r>
       <r>   -3.0637    1.0000 </r>
       <r>   -2.9988    1.0000 </r>
       <r>   -2.9757    1.0000 </r>
       <r>   -2.9356    1.0000 </r>
       <r>   -2.8429    1.0000 </r>
       <r>   -2.8289    1.0000 </r>
       <r>   -2.7679    1.0000 </r>
       <r>   -2.7517    1.0000 </r>
       <r>   -2.7359    1.0000 </r>
       <r>   -2.4803    1.0000 </r>
       <r>   -2.4711    1.0000 </r>
       <r>   -2.3020    1.0000 </r>
       <r>   -2.2954    1.0000 </r>
       <r>   -2.2545    1.0000 </r>
       <r>   -2.2185    1.0000 </r>
       <r>   -2.2149    1.0000 </r>
       <r>   -2.1996    1.0000 </r>
       <r>   -2.1577    1.0000 </r>
       <r>   -2.1521    1.0000 </r>
       <r>   -2.1296    1.0000 </r>
       <r>   -2.1091    1.0000 </r>
       <r>   -2.0852    1.0000 </r>
       <r>   -2.0691    1.0000 </r>
       <r>   -2.0262    1.0000 </r>
       <r>   -2.0064    1.0000 </r>
       <r>   -1.9909    1.0000 </r>
       <r>   -1.9773    1.0000 </r>
       <r>   -1.9497    1.0000 </r>
       <r>   -1.9250    1.0000 </r>
       <r>   -1.8753    1.0000 </r>
       <r>   -1.8701    1.0000 </r>
       <r>   -1.8495    1.0000 </r>
       <r>   -1.8355    1.0000 </r>
       <r>   -1.8166    1.0000 </r>
       <r>   -1.7980    1.0000 </r>
       <r>   -1.7559    1.0000 </r>
       <r>   -1.7345    1.0000 </r>
       <r>   -1.7115    1.0000 </r>
       <r>   -1.7024    1.0000 </r>
       <r>   -1.5848    1.0000 </r>
       <r>   -1.5685    1.0000 </r>
       <r>   -1.5585    1.0000 </r>
       <r>   -1.5232    1.0000 </r>
       <r>   -1.5186    1.0000 </r>
       <r>   -1.4912    1.0000 </r>
       <r>   -1.4850    1.0000 </r>
       <r>   -1.4686    1.0000 </r>
       <r>   -1.4426    1.0000 </r>
       <r>   -1.4161    1.0000 </r>
       <r>   -1.3937    1.0000 </r>
       <r>   -1.3910    1.0000 </r>
       <r>   -1.3472    1.0000 </r>
       <r>   -1.3036    1.0000 </r>
       <r>   -1.2553    1.0000 </r>
       <r>   -1.2345    1.0000 </r>
       <r>   -1.2152    1.0000 </r>
       <r>   -1.2073    1.0000 </r>
       <r>   -1.2061    1.0000 </r>
       <r>   -1.1976    1.0000 </r>
       <r>   -1.1449    1.0000 </r>
       <r>   -1.1318    1.0000 </r>
       <r>   -1.0625    1.0000 </r>
       <r>   -1.0395    1.0000 </r>
       <r>   -1.0204    1.0000 </r>
       <r>   -0.8525    1.0000 </r>
       <r>   -0.8107    1.0000 </r>
       <r>   -0.7891    1.0000 </r>
       <r>   -0.7030    1.0000 </r>
       <r>   -0.6995    1.0000 </r>
       <r>   -0.6092    1.0000 </r>
       <r>   -0.6080    1.0000 </r>
       <r>   -0.5929    1.0000 </r>
       <r>   -0.5582    1.0000 </r>
       <r>   -0.5549    1.0000 </r>
       <r>   -0.5182    1.0000 </r>
       <r>   -0.4613    1.0000 </r>
       <r>   -0.4477    1.0000 </r>
       <r>   -0.3789    1.0000 </r>
       <r>   -0.2903    1.0000 </r>
       <r>   -0.2782    1.0000 </r>
       <r>   -0.1999    1.0000 </r>
       <r>   -0.1633    1.0000 </r>
       <r>   -0.1090    1.0000 </r>
       <r>   -0.0994    1.0000 </r>
       <r>   -0.0598    1.0000 </r>
       <r>   -0.0229    1.0000 </r>
       <r>   -0.0191    1.0000 </r>
       <r>   -0.0146    1.0000 </r>
       <r>    0.0328    1.0000 </r>
       <r>    0.0455    1.0000 </r>
       <r>    0.0761    1.0000 </r>
       <r>    0.1492    1.0000 </r>
       <r>    0.1554    1.0000 </r>
       <r>    0.1915    1.0000 </r>
       <r>    0.2156    1.0000 </r>
       <r>    0.2758    1.0000 </r>
       <r>    0.3023    1.0000 </r>
       <r>    0.3100    1.0000 </r>
       <r>    0.3624    1.0000 </r>
       <r>    0.4131    1.0000 </r>
       <r>    0.4156    1.0000 </r>
       <r>    0.4431    1.0000 </r>
       <r>    0.4891    0.9999 </r>
       <r>    0.4985    0.9999 </r>
       <r>    0.5384    0.9999 </r>
       <r>    0.5498    0.9999 </r>
       <r>    0.5873    0.9999 </r>
       <r>    0.6261    0.9998 </r>
       <r>    0.6511    0.9997 </r>
       <r>    0.6577    0.9997 </r>
       <r>    0.6850    0.9996 </r>
       <r>    0.6906    0.9996 </r>
       <r>    0.7257    0.9995 </r>
       <r>    0.7413    0.9994 </r>
       <r>    0.7629    0.9992 </r>
       <r>    0.7829    0.9990 </r>
       <r>    0.8052    0.9988 </r>
       <r>    0.8584    0.9980 </r>
       <r>    0.8605    0.9979 </r>
       <r>    0.8791    0.9975 </r>
       <r>    0.8874    0.9973 </r>
       <r>    0.9112    0.9966 </r>
       <r>    0.9179    0.9963 </r>
       <r>    0.9481    0.9950 </r>
       <r>    0.9553    0.9947 </r>
       <r>    0.9604    0.9944 </r>
       <r>    1.0032    0.9914 </r>
       <r>    1.0421    0.9874 </r>
       <r>    1.0486    0.9866 </r>
       <r>    1.1049    0.9766 </r>
       <r>    1.1125    0.9748 </r>
       <r>    1.1308    0.9699 </r>
       <r>    1.1404    0.9670 </r>
       <r>    1.1822    0.9507 </r>
       <r>    1.1868    0.9485 </r>
       <r>    1.2177    0.9312 </r>
       <r>    1.2219    0.9285 </r>
       <r>    1.2571    0.9012 </r>
       <r>    1.2614    0.8974 </r>
       <r>    1.2783    0.8806 </r>
       <r>    1.2911    0.8666 </r>
       <r>    1.2962    0.8605 </r>
       <r>    1.3106    0.8424 </r>
       <r>    1.4040    0.6773 </r>
       <r>    1.4893    0.4722 </r>
       <r>    1.5022    0.4403 </r>
       <r>    1.5213    0.3937 </r>
       <r>    1.5490    0.3299 </r>
       <r>    1.5580    0.3104 </r>
       <r>    1.5881    0.2499 </r>
       <r>    1.9646    0.0077 </r>
       <r>    2.0467    0.0034 </r>
       <r>    2.1124    0.0018 </r>
       <r>    2.2418    0.0005 </r>
       <r>    2.3620    0.0001 </r>
       <r>    2.4190    0.0001 </r>
       <r>    2.5642    0.0000 </r>
       <r>    3.4731    0.0000 </r>
       <r>    3.5051    0.0000 </r>
       <r>    4.3374    0.0000 </r>
       <r>    4.5015    0.0000 </r>
       <r>    4.6608    0.0000 </r>
       <r>    4.8711    0.0000 </r>
       <r>    5.1651    0.0000 </r>
       <r>    5.1851    0.0000 </r>
       <r>    5.8084    0.0000 </r>
       <r>    5.8640    0.0000 </r>
       <r>    6.0569    0.0000 </r>
       <r>    6.2283    0.0000 </r>
       <r>    6.3650    0.0000 </r>
       <r>    6.5490    0.0000 </r>
       <r>    6.6312    0.0000 </r>
       <r>    6.7276    0.0000 </r>
       <r>    6.7695    0.0000 </r>
       <r>    6.9535    0.0000 </r>
      </set>
      <set comment="kpoint 2">
       <r>  -13.0507    1.0000 </r>
       <r>   -9.3094    1.0000 </r>
       <r>   -7.7065    1.0000 </r>
       <r>   -6.3820    1.0000 </r>
       <r>   -5.5016    1.0000 </r>
       <r>   -5.4284    1.0000 </r>
       <r>   -5.3920    1.0000 </r>
       <r>   -5.3555    1.0000 </r>
       <r>   -5.2652    1.0000 </r>
       <r>   -5.2441    1.0000 </r>
       <r>   -5.2232    1.0000 </r>
       <r>   -5.1640    1.0000 </r>
       <r>   -5.0635    1.0000 </r>
       <r>   -5.0628    1.0000 </r>
       <r>   -4.8631    1.0000 </r>
       <r>   -4.7084    1.0000 </r>
       <r>   -4.6764    1.0000 </r>
       <r>   -4.6677    1.0000 </r>
       <r>   -4.6097    1.0000 </r>
       <r>   -4.5886    1.0000 </r>
       <r>   -4.5686    1.0000 </r>
       <r>   -4.2123    1.0000 </r>
       <r>   -4.2025    1.0000 </r>
       <r>   -4.1911    1.0000 </r>
       <r>   -4.1315    1.0000 </r>
       <r>   -4.1128    1.0000 </r>
       <r>   -4.0742    1.0000 </r>
       <r>   -4.0298    1.0000 </r>
       <r>   -3.9933    1.0000 </r>
       <r>   -3.9509    1.0000 </r>
       <r>   -3.8690    1.0000 </r>
       <r>   -3.8659    1.0000 </r>
       <r>   -3.8299    1.0000 </r>
       <r>   -3.8098    1.0000 </r>
       <r>   -3.7978    1.0000 </r>
       <r>   -3.7715    1.0000 </r>
       <r>   -3.7635    1.0000 </r>
       <r>   -3.7270    1.0000 </r>
       <r>   -3.7222    1.0000 </r>
       <r>   -3.7085    1.0000 </r>
       <r>   -3.6910    1.0000 </r>
       <r>   -3.6605    1.0000 </r>
       <r>   -3.5384    1.0000 </r>
       <r>   -3.5296    1.0000 </r>
       <r>   -3.2758    1.0000 </r>
       <r>   -3.1239    1.0000 </r>
       <r>   -3.1212    1.0000 </r>
       <r>   -3.1005    1.0000 </r>
       <r>   -3.0953    1.0000 </r>
       <r>   -3.0778    1.0000 </r>
       <r>   -3.0655    1.0000 </r>
       <r>   -2.9993    1.0000 </r>
       <r>   -2.9765    1.0000 </r>
       <r>   -2.9350    1.0000 </r>
       <r>   -2.8409    1.0000 </r>
       <r>   -2.8303    1.0000 </r>
       <r>   -2.7673    1.0000 </r>
       <r>   -2.7521    1.0000 </r>
       <r>   -2.7358    1.0000 </r>
       <r>   -2.4824    1.0000 </r>
       <r>   -2.4701    1.0000 </r>
       <r>   -2.3034    1.0000 </r>
       <r>   -2.2960    1.0000 </r>
       <r>   -2.2549    1.0000 </r>
       <r>   -2.2233    1.0000 </r>
       <r>   -2.2146    1.0000 </r>
       <r>   -2.1976    1.0000 </r>
       <r>   -2.1603    1.0000 </r>
       <r>   -2.1535    1.0000 </r>
       <r>   -2.1265    1.0000 </r>
       <r>   -2.1065    1.0000 </r>
       <r>   -2.0842    1.0000 </r>
       <r>   -2.0690    1.0000 </r>
       <r>   -2.0257    1.0000 </r>
       <r>   -2.0068    1.0000 </r>
       <r>   -1.9923    1.0000 </r>
       <r>   -1.9770    1.0000 </r>
       <r>   -1.9495    1.0000 </r>
       <r>   -1.9272    1.0000 </r>
       <r>   -1.8760    1.0000 </r>
       <r>   -1.8740    1.0000 </r>
       <r>   -1.8520    1.0000 </r>
       <r>   -1.8311    1.0000 </r>
       <r>   -1.8021    1.0000 </r>
       <r>   -1.7936    1.0000 </r>
       <r>   -1.7540    1.0000 </r>
       <r>   -1.7394    1.0000 </r>
       <r>   -1.7185    1.0000 </r>
       <r>   -1.7065    1.0000 </r>
       <r>   -1.5797    1.0000 </r>
       <r>   -1.5692    1.0000 </r>
       <r>   -1.5619    1.0000 </r>
       <r>   -1.5235    1.0000 </r>
       <r>   -1.5165    1.0000 </r>
       <r>   -1.4934    1.0000 </r>
       <r>   -1.4865    1.0000 </r>
       <r>   -1.4631    1.0000 </r>
       <r>   -1.4431    1.0000 </r>
       <r>   -1.4150    1.0000 </r>
       <r>   -1.3926    1.0000 </r>
       <r>   -1.3911    1.0000 </r>
       <r>   -1.3466    1.0000 </r>
       <r>   -1.3090    1.0000 </r>
       <r>   -1.2570    1.0000 </r>
       <r>   -1.2303    1.0000 </r>
       <r>   -1.2180    1.0000 </r>
       <r>   -1.2070    1.0000 </r>
       <r>   -1.2065    1.0000 </r>
       <r>   -1.1969    1.0000 </r>
       <r>   -1.1360    1.0000 </r>
       <r>   -1.1303    1.0000 </r>
       <r>   -1.0624    1.0000 </r>
       <r>   -1.0511    1.0000 </r>
       <r>   -1.0190    1.0000 </r>
       <r>   -0.8540    1.0000 </r>
       <r>   -0.8095    1.0000 </r>
       <r>   -0.7899    1.0000 </r>
       <r>   -0.7038    1.0000 </r>
       <r>   -0.6995    1.0000 </r>
       <r>   -0.6093    1.0000 </r>
       <r>   -0.6075    1.0000 </r>
       <r>   -0.5919    1.0000 </r>
       <r>   -0.5572    1.0000 </r>
       <r>   -0.5528    1.0000 </r>
       <r>   -0.5196    1.0000 </r>
       <r>   -0.4565    1.0000 </r>
       <r>   -0.4497    1.0000 </r>
       <r>   -0.3766    1.0000 </r>
       <r>   -0.2893    1.0000 </r>
       <r>   -0.2800    1.0000 </r>
       <r>   -0.1998    1.0000 </r>
       <r>   -0.1628    1.0000 </r>
       <r>   -0.1085    1.0000 </r>
       <r>   -0.1009    1.0000 </r>
       <r>   -0.0616    1.0000 </r>
       <r>   -0.0230    1.0000 </r>
       <r>   -0.0185    1.0000 </r>
       <r>   -0.0148    1.0000 </r>
       <r>    0.0333    1.0000 </r>
       <r>    0.0489    1.0000 </r>
       <r>    0.0794    1.0000 </r>
       <r>    0.1510    1.0000 </r>
       <r>    0.1555    1.0000 </r>
       <r>    0.1908    1.0000 </r>
       <r>    0.2144    1.0000 </r>
       <r>    0.2774    1.0000 </r>
       <r>    0.3032    1.0000 </r>
       <r>    0.3072    1.0000 </r>
       <r>    0.3617    1.0000 </r>
       <r>    0.4119    1.0000 </r>
       <r>    0.4140    1.0000 </r>
       <r>    0.4413    1.0000 </r>
       <r>    0.4892    0.9999 </r>
       <r>    0.4970    0.9999 </r>
       <r>    0.5385    0.9999 </r>
       <r>    0.5486    0.9999 </r>
       <r>    0.5858    0.9999 </r>
       <r>    0.6270    0.9998 </r>
       <r>    0.6542    0.9997 </r>
       <r>    0.6571    0.9997 </r>
       <r>    0.6871    0.9996 </r>
       <r>    0.6910    0.9996 </r>
       <r>    0.7267    0.9995 </r>
       <r>    0.7404    0.9994 </r>
       <r>    0.7616    0.9992 </r>
       <r>    0.7837    0.9990 </r>
       <r>    0.8053    0.9988 </r>
       <r>    0.8579    0.9980 </r>
       <r>    0.8613    0.9979 </r>
       <r>    0.8790    0.9975 </r>
       <r>    0.8882    0.9973 </r>
       <r>    0.9100    0.9966 </r>
       <r>    0.9153    0.9964 </r>
       <r>    0.9494    0.9950 </r>
       <r>    0.9543    0.9947 </r>
       <r>    0.9565    0.9946 </r>
       <r>    1.0057    0.9912 </r>
       <r>    1.0418    0.9874 </r>
       <r>    1.0472    0.9867 </r>
       <r>    1.1055    0.9765 </r>
       <r>    1.1123    0.9749 </r>
       <r>    1.1314    0.9697 </r>
       <r>    1.1374    0.9679 </r>
       <r>    1.1852    0.9493 </r>
       <r>    1.1895    0.9472 </r>
       <r>    1.2179    0.9310 </r>
       <r>    1.2237    0.9272 </r>
       <r>    1.2578    0.9006 </r>
       <r>    1.2624    0.8964 </r>
       <r>    1.2783    0.8806 </r>
       <r>    1.2928    0.8646 </r>
       <r>    1.2951    0.8618 </r>
       <r>    1.3138    0.8380 </r>
       <r>    1.3961    0.6944 </r>
       <r>    1.4936    0.4615 </r>
       <r>    1.5026    0.4394 </r>
       <r>    1.5162    0.4060 </r>
       <r>    1.5492    0.3296 </r>
       <r>    1.5570    0.3126 </r>
       <r>    1.5858    0.2541 </r>
       <r>    1.9670    0.0075 </r>
       <r>    2.0444    0.0035 </r>
       <r>    2.1110    0.0018 </r>
       <r>    2.2402    0.0005 </r>
       <r>    2.3645    0.0001 </r>
       <r>    2.4175    0.0001 </r>
       <r>    2.5672    0.0000 </r>
       <r>    3.4760    0.0000 </r>
       <r>    3.5026    0.0000 </r>
       <r>    4.3392    0.0000 </r>
       <r>    4.5023    0.0000 </r>
       <r>    4.6548    0.0000 </r>
       <r>    4.8719    0.0000 </r>
       <r>    5.1736    0.0000 </r>
       <r>    5.1782    0.0000 </r>
       <r>    5.8102    0.0000 </r>
       <r>    5.8650    0.0000 </r>
       <r>    6.0569    0.0000 </r>
       <r>    6.2253    0.0000 </r>
       <r>    6.3611    0.0000 </r>
       <r>    6.5465    0.0000 </r>
       <r>    6.6419    0.0000 </r>
       <r>    6.7272    0.0000 </r>
       <r>    6.7739    0.0000 </r>
       <r>    6.9834    0.0000 </r>
      </set>
      <set comment="kpoint 3">
       <r>  -13.0507    1.0000 </r>
       <r>   -9.3095    1.0000 </r>
       <r>   -7.7066    1.0000 </r>
       <r>   -6.3820    1.0000 </r>
       <r>   -5.5088    1.0000 </r>
       <r>   -5.4240    1.0000 </r>
       <r>   -5.3919    1.0000 </r>
       <r>   -5.3536    1.0000 </r>
       <r>   -5.2653    1.0000 </r>
       <r>   -5.2389    1.0000 </r>
       <r>   -5.2241    1.0000 </r>
       <r>   -5.1656    1.0000 </r>
       <r>   -5.0643    1.0000 </r>
       <r>   -5.0635    1.0000 </r>
       <r>   -4.8633    1.0000 </r>
       <r>   -4.7033    1.0000 </r>
       <r>   -4.6793    1.0000 </r>
       <r>   -4.6705    1.0000 </r>
       <r>   -4.6112    1.0000 </r>
       <r>   -4.5883    1.0000 </r>
       <r>   -4.5681    1.0000 </r>
       <r>   -4.2149    1.0000 </r>
       <r>   -4.2002    1.0000 </r>
       <r>   -4.1893    1.0000 </r>
       <r>   -4.1321    1.0000 </r>
       <r>   -4.1122    1.0000 </r>
       <r>   -4.0745    1.0000 </r>
       <r>   -4.0304    1.0000 </r>
       <r>   -3.9932    1.0000 </r>
       <r>   -3.9511    1.0000 </r>
       <r>   -3.8690    1.0000 </r>
       <r>   -3.8677    1.0000 </r>
       <r>   -3.8332    1.0000 </r>
       <r>   -3.8108    1.0000 </r>
       <r>   -3.7961    1.0000 </r>
       <r>   -3.7750    1.0000 </r>
       <r>   -3.7662    1.0000 </r>
       <r>   -3.7218    1.0000 </r>
       <r>   -3.7202    1.0000 </r>
       <r>   -3.7048    1.0000 </r>
       <r>   -3.6885    1.0000 </r>
       <r>   -3.6588    1.0000 </r>
       <r>   -3.5411    1.0000 </r>
       <r>   -3.5313    1.0000 </r>
       <r>   -3.2759    1.0000 </r>
       <r>   -3.1262    1.0000 </r>
       <r>   -3.1234    1.0000 </r>
       <r>   -3.1013    1.0000 </r>
       <r>   -3.0931    1.0000 </r>
       <r>   -3.0758    1.0000 </r>
       <r>   -3.0624    1.0000 </r>
       <r>   -2.9987    1.0000 </r>
       <r>   -2.9754    1.0000 </r>
       <r>   -2.9358    1.0000 </r>
       <r>   -2.8428    1.0000 </r>
       <r>   -2.8298    1.0000 </r>
       <r>   -2.7684    1.0000 </r>
       <r>   -2.7504    1.0000 </r>
       <r>   -2.7370    1.0000 </r>
       <r>   -2.4806    1.0000 </r>
       <r>   -2.4701    1.0000 </r>
       <r>   -2.2996    1.0000 </r>
       <r>   -2.2958    1.0000 </r>
       <r>   -2.2549    1.0000 </r>
       <r>   -2.2172    1.0000 </r>
       <r>   -2.2145    1.0000 </r>
       <r>   -2.2000    1.0000 </r>
       <r>   -2.1570    1.0000 </r>
       <r>   -2.1503    1.0000 </r>
       <r>   -2.1309    1.0000 </r>
       <r>   -2.1102    1.0000 </r>
       <r>   -2.0859    1.0000 </r>
       <r>   -2.0687    1.0000 </r>
       <r>   -2.0249    1.0000 </r>
       <r>   -2.0064    1.0000 </r>
       <r>   -1.9911    1.0000 </r>
       <r>   -1.9768    1.0000 </r>
       <r>   -1.9502    1.0000 </r>
       <r>   -1.9239    1.0000 </r>
       <r>   -1.8758    1.0000 </r>
       <r>   -1.8669    1.0000 </r>
       <r>   -1.8496    1.0000 </r>
       <r>   -1.8381    1.0000 </r>
       <r>   -1.8254    1.0000 </r>
       <r>   -1.8021    1.0000 </r>
       <r>   -1.7521    1.0000 </r>
       <r>   -1.7375    1.0000 </r>
       <r>   -1.7061    1.0000 </r>
       <r>   -1.6978    1.0000 </r>
       <r>   -1.5936    1.0000 </r>
       <r>   -1.5621    1.0000 </r>
       <r>   -1.5579    1.0000 </r>
       <r>   -1.5231    1.0000 </r>
       <r>   -1.5171    1.0000 </r>
       <r>   -1.4895    1.0000 </r>
       <r>   -1.4819    1.0000 </r>
       <r>   -1.4763    1.0000 </r>
       <r>   -1.4419    1.0000 </r>
       <r>   -1.4173    1.0000 </r>
       <r>   -1.3936    1.0000 </r>
       <r>   -1.3921    1.0000 </r>
       <r>   -1.3476    1.0000 </r>
       <r>   -1.3017    1.0000 </r>
       <r>   -1.2523    1.0000 </r>
       <r>   -1.2362    1.0000 </r>
       <r>   -1.2137    1.0000 </r>
       <r>   -1.2074    1.0000 </r>
       <r>   -1.2066    1.0000 </r>
       <r>   -1.1991    1.0000 </r>
       <r>   -1.1462    1.0000 </r>
       <r>   -1.1374    1.0000 </r>
       <r>   -1.0622    1.0000 </r>
       <r>   -1.0325    1.0000 </r>
       <r>   -1.0209    1.0000 </r>
       <r>   -0.8518    1.0000 </r>
       <r>   -0.8106    1.0000 </r>
       <r>   -0.7888    1.0000 </r>
       <r>   -0.7023    1.0000 </r>
       <r>   -0.7000    1.0000 </r>
       <r>   -0.6085    1.0000 </r>
       <r>   -0.6080    1.0000 </r>
       <r>   -0.5933    1.0000 </r>
       <r>   -0.5587    1.0000 </r>
       <r>   -0.5564    1.0000 </r>
       <r>   -0.5176    1.0000 </r>
       <r>   -0.4599    1.0000 </r>
       <r>   -0.4514    1.0000 </r>
       <r>   -0.3804    1.0000 </r>
       <r>   -0.2908    1.0000 </r>
       <r>   -0.2772    1.0000 </r>
       <r>   -0.1994    1.0000 </r>
       <r>   -0.1642    1.0000 </r>
       <r>   -0.1096    1.0000 </r>
       <r>   -0.0991    1.0000 </r>
       <r>   -0.0581    1.0000 </r>
       <r>   -0.0233    1.0000 </r>
       <r>   -0.0186    1.0000 </r>
       <r>   -0.0151    1.0000 </r>
       <r>    0.0314    1.0000 </r>
       <r>    0.0426    1.0000 </r>
       <r>    0.0744    1.0000 </r>
       <r>    0.1490    1.0000 </r>
       <r>    0.1553    1.0000 </r>
       <r>    0.1929    1.0000 </r>
       <r>    0.2158    1.0000 </r>
       <r>    0.2754    1.0000 </r>
       <r>    0.3022    1.0000 </r>
       <r>    0.3108    1.0000 </r>
       <r>    0.3628    1.0000 </r>
       <r>    0.4137    1.0000 </r>
       <r>    0.4166    1.0000 </r>
       <r>    0.4435    1.0000 </r>
       <r>    0.4917    0.9999 </r>
       <r>    0.4989    0.9999 </r>
       <r>    0.5392    0.9999 </r>
       <r>    0.5502    0.9999 </r>
       <r>    0.5881    0.9999 </r>
       <r>    0.6261    0.9998 </r>
       <r>    0.6498    0.9997 </r>
       <r>    0.6577    0.9997 </r>
       <r>    0.6849    0.9996 </r>
       <r>    0.6884    0.9996 </r>
       <r>    0.7252    0.9995 </r>
       <r>    0.7420    0.9994 </r>
       <r>    0.7635    0.9992 </r>
       <r>    0.7840    0.9990 </r>
       <r>    0.8042    0.9988 </r>
       <r>    0.8583    0.9980 </r>
       <r>    0.8594    0.9980 </r>
       <r>    0.8789    0.9975 </r>
       <r>    0.8870    0.9973 </r>
       <r>    0.9122    0.9965 </r>
       <r>    0.9193    0.9963 </r>
       <r>    0.9477    0.9951 </r>
       <r>    0.9554    0.9947 </r>
       <r>    0.9626    0.9943 </r>
       <r>    1.0013    0.9916 </r>
       <r>    1.0434    0.9872 </r>
       <r>    1.0487    0.9865 </r>
       <r>    1.1035    0.9769 </r>
       <r>    1.1139    0.9745 </r>
       <r>    1.1339    0.9690 </r>
       <r>    1.1393    0.9673 </r>
       <r>    1.1799    0.9518 </r>
       <r>    1.1842    0.9498 </r>
       <r>    1.2176    0.9313 </r>
       <r>    1.2204    0.9294 </r>
       <r>    1.2567    0.9015 </r>
       <r>    1.2606    0.8981 </r>
       <r>    1.2783    0.8806 </r>
       <r>    1.2901    0.8677 </r>
       <r>    1.2970    0.8595 </r>
       <r>    1.3094    0.8439 </r>
       <r>    1.4095    0.6653 </r>
       <r>    1.4862    0.4799 </r>
       <r>    1.5010    0.4433 </r>
       <r>    1.5254    0.3842 </r>
       <r>    1.5499    0.3280 </r>
       <r>    1.5574    0.3116 </r>
       <r>    1.5903    0.2457 </r>
       <r>    1.9623    0.0078 </r>
       <r>    2.0487    0.0033 </r>
       <r>    2.1132    0.0017 </r>
       <r>    2.2423    0.0005 </r>
       <r>    2.3605    0.0001 </r>
       <r>    2.4207    0.0001 </r>
       <r>    2.5619    0.0000 </r>
       <r>    3.4717    0.0000 </r>
       <r>    3.5064    0.0000 </r>
       <r>    4.3363    0.0000 </r>
       <r>    4.5006    0.0000 </r>
       <r>    4.6650    0.0000 </r>
       <r>    4.8706    0.0000 </r>
       <r>    5.1626    0.0000 </r>
       <r>    5.1863    0.0000 </r>
       <r>    5.8076    0.0000 </r>
       <r>    5.8635    0.0000 </r>
       <r>    6.0569    0.0000 </r>
       <r>    6.2298    0.0000 </r>
       <r>    6.3669    0.0000 </r>
       <r>    6.5514    0.0000 </r>
       <r>    6.6247    0.0000 </r>
       <r>    6.7253    0.0000 </r>
       <r>    6.7689    0.0000 </r>
       <r>    6.9406    0.0000 </r>
      </set>
      <set comment="kpoint 4">
       <r>  -13.0502    1.0000 </r>
       <r>   -9.2988    1.0000 </r>
       <r>   -7.5563    1.0000 </r>
       <r>   -6.2454    1.0000 </r>
       <r>   -5.8407    1.0000 </r>
       <r>   -5.6537    1.0000 </r>
       <r>   -5.3171    1.0000 </r>
       <r>   -5.2836    1.0000 </r>
       <r>   -5.1901    1.0000 </r>
       <r>   -5.1241    1.0000 </r>
       <r>   -5.1158    1.0000 </r>
       <r>   -5.0297    1.0000 </r>
       <r>   -4.9919    1.0000 </r>
       <r>   -4.9641    1.0000 </r>
       <r>   -4.8340    1.0000 </r>
       <r>   -4.7643    1.0000 </r>
       <r>   -4.6868    1.0000 </r>
       <r>   -4.6539    1.0000 </r>
       <r>   -4.5938    1.0000 </r>
       <r>   -4.5265    1.0000 </r>
       <r>   -4.4649    1.0000 </r>
       <r>   -4.2575    1.0000 </r>
       <r>   -4.1962    1.0000 </r>
       <r>   -4.1564    1.0000 </r>
       <r>   -4.1002    1.0000 </r>
       <r>   -4.0819    1.0000 </r>
       <r>   -4.0572    1.0000 </r>
       <r>   -4.0271    1.0000 </r>
       <r>   -4.0073    1.0000 </r>
       <r>   -3.9864    1.0000 </r>
       <r>   -3.9381    1.0000 </r>
       <r>   -3.9186    1.0000 </r>
       <r>   -3.8980    1.0000 </r>
       <r>   -3.8738    1.0000 </r>
       <r>   -3.8271    1.0000 </r>
       <r>   -3.8075    1.0000 </r>
       <r>   -3.7835    1.0000 </r>
       <r>   -3.7286    1.0000 </r>
       <r>   -3.6627    1.0000 </r>
       <r>   -3.5577    1.0000 </r>
       <r>   -3.5364    1.0000 </r>
       <r>   -3.5141    1.0000 </r>
       <r>   -3.4920    1.0000 </r>
       <r>   -3.4413    1.0000 </r>
       <r>   -3.2978    1.0000 </r>
       <r>   -3.2313    1.0000 </r>
       <r>   -3.1879    1.0000 </r>
       <r>   -3.1714    1.0000 </r>
       <r>   -3.1411    1.0000 </r>
       <r>   -3.1214    1.0000 </r>
       <r>   -3.0794    1.0000 </r>
       <r>   -3.0004    1.0000 </r>
       <r>   -2.9389    1.0000 </r>
       <r>   -2.8971    1.0000 </r>
       <r>   -2.8704    1.0000 </r>
       <r>   -2.8217    1.0000 </r>
       <r>   -2.7887    1.0000 </r>
       <r>   -2.7698    1.0000 </r>
       <r>   -2.6827    1.0000 </r>
       <r>   -2.5780    1.0000 </r>
       <r>   -2.5501    1.0000 </r>
       <r>   -2.4983    1.0000 </r>
       <r>   -2.4760    1.0000 </r>
       <r>   -2.3650    1.0000 </r>
       <r>   -2.3488    1.0000 </r>
       <r>   -2.3108    1.0000 </r>
       <r>   -2.2874    1.0000 </r>
       <r>   -2.2670    1.0000 </r>
       <r>   -2.2610    1.0000 </r>
       <r>   -2.2204    1.0000 </r>
       <r>   -2.1842    1.0000 </r>
       <r>   -2.1678    1.0000 </r>
       <r>   -2.1078    1.0000 </r>
       <r>   -2.0661    1.0000 </r>
       <r>   -2.0608    1.0000 </r>
       <r>   -2.0430    1.0000 </r>
       <r>   -2.0245    1.0000 </r>
       <r>   -2.0062    1.0000 </r>
       <r>   -1.9785    1.0000 </r>
       <r>   -1.9454    1.0000 </r>
       <r>   -1.8450    1.0000 </r>
       <r>   -1.8360    1.0000 </r>
       <r>   -1.7758    1.0000 </r>
       <r>   -1.7706    1.0000 </r>
       <r>   -1.7571    1.0000 </r>
       <r>   -1.7342    1.0000 </r>
       <r>   -1.7232    1.0000 </r>
       <r>   -1.6870    1.0000 </r>
       <r>   -1.6648    1.0000 </r>
       <r>   -1.6476    1.0000 </r>
       <r>   -1.6212    1.0000 </r>
       <r>   -1.5623    1.0000 </r>
       <r>   -1.5445    1.0000 </r>
       <r>   -1.5348    1.0000 </r>
       <r>   -1.5254    1.0000 </r>
       <r>   -1.5161    1.0000 </r>
       <r>   -1.4849    1.0000 </r>
       <r>   -1.4826    1.0000 </r>
       <r>   -1.4413    1.0000 </r>
       <r>   -1.4258    1.0000 </r>
       <r>   -1.4058    1.0000 </r>
       <r>   -1.3810    1.0000 </r>
       <r>   -1.3402    1.0000 </r>
       <r>   -1.3138    1.0000 </r>
       <r>   -1.2993    1.0000 </r>
       <r>   -1.2828    1.0000 </r>
       <r>   -1.2486    1.0000 </r>
       <r>   -1.2268    1.0000 </r>
       <r>   -1.2009    1.0000 </r>
       <r>   -1.1536    1.0000 </r>
       <r>   -1.1368    1.0000 </r>
       <r>   -1.1191    1.0000 </r>
       <r>   -1.0952    1.0000 </r>
       <r>   -1.0496    1.0000 </r>
       <r>   -1.0173    1.0000 </r>
       <r>   -0.9562    1.0000 </r>
       <r>   -0.8968    1.0000 </r>
       <r>   -0.8779    1.0000 </r>
       <r>   -0.8176    1.0000 </r>
       <r>   -0.8081    1.0000 </r>
       <r>   -0.6704    1.0000 </r>
       <r>   -0.6312    1.0000 </r>
       <r>   -0.6150    1.0000 </r>
       <r>   -0.5740    1.0000 </r>
       <r>   -0.5508    1.0000 </r>
       <r>   -0.5346    1.0000 </r>
       <r>   -0.4859    1.0000 </r>
       <r>   -0.3997    1.0000 </r>
       <r>   -0.3617    1.0000 </r>
       <r>   -0.3301    1.0000 </r>
       <r>   -0.2732    1.0000 </r>
       <r>   -0.2197    1.0000 </r>
       <r>   -0.1702    1.0000 </r>
       <r>   -0.1463    1.0000 </r>
       <r>   -0.1351    1.0000 </r>
       <r>   -0.1175    1.0000 </r>
       <r>   -0.1008    1.0000 </r>
       <r>   -0.0596    1.0000 </r>
       <r>   -0.0349    1.0000 </r>
       <r>    0.0172    1.0000 </r>
       <r>    0.0862    1.0000 </r>
       <r>    0.1019    1.0000 </r>
       <r>    0.1396    1.0000 </r>
       <r>    0.1699    1.0000 </r>
       <r>    0.1939    1.0000 </r>
       <r>    0.2172    1.0000 </r>
       <r>    0.2469    1.0000 </r>
       <r>    0.2774    1.0000 </r>
       <r>    0.3005    1.0000 </r>
       <r>    0.3193    1.0000 </r>
       <r>    0.3405    1.0000 </r>
       <r>    0.3592    1.0000 </r>
       <r>    0.3978    1.0000 </r>
       <r>    0.4321    1.0000 </r>
       <r>    0.4672    1.0000 </r>
       <r>    0.4807    1.0000 </r>
       <r>    0.5239    0.9999 </r>
       <r>    0.5379    0.9999 </r>
       <r>    0.5546    0.9999 </r>
       <r>    0.6216    0.9998 </r>
       <r>    0.6662    0.9997 </r>
       <r>    0.7222    0.9995 </r>
       <r>    0.7295    0.9994 </r>
       <r>    0.7731    0.9991 </r>
       <r>    0.8101    0.9987 </r>
       <r>    0.8440    0.9982 </r>
       <r>    0.8937    0.9971 </r>
       <r>    0.9058    0.9967 </r>
       <r>    0.9366    0.9956 </r>
       <r>    0.9620    0.9943 </r>
       <r>    1.0150    0.9904 </r>
       <r>    1.0397    0.9877 </r>
       <r>    1.0671    0.9839 </r>
       <r>    1.1081    0.9759 </r>
       <r>    1.1298    0.9702 </r>
       <r>    1.1483    0.9644 </r>
       <r>    1.1600    0.9601 </r>
       <r>    1.1877    0.9481 </r>
       <r>    1.2324    0.9211 </r>
       <r>    1.2419    0.9139 </r>
       <r>    1.2774    0.8816 </r>
       <r>    1.2901    0.8677 </r>
       <r>    1.3264    0.8202 </r>
       <r>    1.3485    0.7853 </r>
       <r>    1.3655    0.7553 </r>
       <r>    1.3815    0.7244 </r>
       <r>    1.4202    0.6410 </r>
       <r>    1.4466    0.5782 </r>
       <r>    1.4654    0.5320 </r>
       <r>    1.4960    0.4556 </r>
       <r>    1.5192    0.3989 </r>
       <r>    1.5250    0.3852 </r>
       <r>    1.5573    0.3120 </r>
       <r>    1.6237    0.1891 </r>
       <r>    1.6567    0.1436 </r>
       <r>    1.6938    0.1038 </r>
       <r>    1.7196    0.0821 </r>
       <r>    1.7817    0.0459 </r>
       <r>    1.8020    0.0378 </r>
       <r>    1.9443    0.0094 </r>
       <r>    1.9674    0.0074 </r>
       <r>    2.0259    0.0042 </r>
       <r>    2.3378    0.0002 </r>
       <r>    2.4933    0.0000 </r>
       <r>    2.7716    0.0000 </r>
       <r>    3.0133    0.0000 </r>
       <r>    3.1006    0.0000 </r>
       <r>    3.3847    0.0000 </r>
       <r>    3.5648    0.0000 </r>
       <r>    4.1324    0.0000 </r>
       <r>    4.3935    0.0000 </r>
       <r>    4.7139    0.0000 </r>
       <r>    4.8758    0.0000 </r>
       <r>    5.1060    0.0000 </r>
       <r>    5.3574    0.0000 </r>
       <r>    5.4330    0.0000 </r>
       <r>    5.5656    0.0000 </r>
       <r>    5.8611    0.0000 </r>
       <r>    6.0091    0.0000 </r>
[...]
  <dos>
   <i name="efermi">      1.47817752 </i>
   <total>
    <array>
     <dimension dim="1">gridpoints</dimension>
     <dimension dim="2">spin</dimension>
     <field>energy</field>
     <field>total</field>
     <field>integrated</field>
     <set>
      <set comment="spin 1">
       <r>   -14.0704     0.0000     0.0000 </r>
       <r>   -13.9956     0.0000     0.0000 </r>
       <r>   -13.9208     0.0044     0.0003 </r>
       <r>   -13.8461     0.0049     0.0007 </r>
       <r>   -13.7713     0.0103     0.0015 </r>
       <r>   -13.6965     0.0218     0.0031 </r>
       <r>   -13.6217     0.0460     0.0065 </r>
       <r>   -13.5469     0.0966     0.0138 </r>
       <r>   -13.4722     0.2017     0.0288 </r>
       <r>   -13.3974     0.4161     0.0600 </r>
       <r>   -13.3226     0.8372     0.1226 </r>
       <r>   -13.2478     1.6022     0.2424 </r>
       <r>   -13.1730     2.7920     0.4512 </r>
       <r>   -13.0983     4.1546     0.7618 </r>
       <r>   -13.0235     4.9276     1.1303 </r>
       <r>   -12.9487     4.4891     1.4660 </r>
       <r>   -12.8739     3.2073     1.7058 </r>
       <r>   -12.7991     1.9151     1.8491 </r>
       <r>   -12.7244     1.0234     1.9256 </r>
       <r>   -12.6496     0.5146     1.9641 </r>
       <r>   -12.5748     0.2509     1.9828 </r>
       <r>   -12.5000     0.1204     1.9918 </r>
       <r>   -12.4252     0.0574     1.9961 </r>
       <r>   -12.3505     0.0273     1.9982 </r>
       <r>   -12.2757     0.0129     1.9991 </r>
       <r>   -12.2009     0.0000     2.0000 </r>
       <r>   -12.1261     0.0000     2.0000 </r>
       <r>   -12.0514     0.0000     2.0000 </r>
       <r>   -11.9766     0.0000     2.0000 </r>
       <r>   -11.9018     0.0000     2.0000 </r>
       <r>   -11.8270     0.0000     2.0000 </r>
       <r>   -11.7522     0.0000     2.0000 </r>
       <r>   -11.6775     0.0000     2.0000 </r>
       <r>   -11.6027     0.0000     2.0000 </r>
       <r>   -11.5279     0.0000     2.0000 </r>
       <r>   -11.4531     0.0000     2.0000 </r>
       <r>   -11.3783     0.0000     2.0000 </r>
       <r>   -11.3036     0.0000     2.0000 </r>
       <r>   -11.2288     0.0000     2.0000 </r>
       <r>   -11.1540     0.0000     2.0000 </r>
       <r>   -11.0792     0.0000     2.0000 </r>
       <r>   -11.0044     0.0000     2.0000 </r>
       <r>   -10.9297     0.0000     2.0000 </r>
       <r>   -10.8549     0.0000     2.0000 </r>
       <r>   -10.7801     0.0000     2.0000 </r>
       <r>   -10.7053     0.0000     2.0000 </r>
       <r>   -10.6305     0.0000     2.0000 </r>
       <r>   -10.5558     0.0000     2.0000 </r>
       <r>   -10.4810     0.0000     2.0000 </r>
       <r>   -10.4062     0.0000     2.0000 </r>
       <r>   -10.3314     0.0000     2.0000 </r>
       <r>   -10.2566     0.0000     2.0000 </r>
       <r>   -10.1819     0.0002     2.0000 </r>
       <r>   -10.1071     0.0072     2.0006 </r>
       <r>   -10.0323     0.0083     2.0012 </r>
       <r>    -9.9575     0.0175     2.0025 </r>
       <r>    -9.8828     0.0369     2.0052 </r>
       <r>    -9.8080     0.0776     2.0110 </r>
       <r>    -9.7332     0.1624     2.0232 </r>
       <r>    -9.6584     0.3365     2.0483 </r>
       <r>    -9.5836     0.6831     2.0994 </r>
       <r>    -9.5089     1.3306     2.1989 </r>
       <r>    -9.4341     2.3957     2.3781 </r>
       <r>    -9.3593     3.7605     2.6593 </r>
       <r>    -9.2845     4.7993     3.0182 </r>
       <r>    -9.2097     4.7378     3.3725 </r>
       <r>    -9.1350     3.6281     3.6438 </r>
       <r>    -9.0602     2.2735     3.8138 </r>
       <r>    -8.9854     1.2501     3.9073 </r>
       <r>    -8.9106     0.6382     3.9550 </r>
       <r>    -8.8358     0.3135     3.9784 </r>
       <r>    -8.7611     0.1511     3.9897 </r>
       <r>    -8.6863     0.0721     3.9951 </r>
       <r>    -8.6115     0.0343     3.9977 </r>
       <r>    -8.5367     0.0166     3.9989 </r>
       <r>    -8.4619     0.0009     4.0001 </r>
       <r>    -8.3872     0.0021     4.0003 </r>
       <r>    -8.3124     0.0042     4.0006 </r>
       <r>    -8.2376     0.0091     4.0013 </r>
       <r>    -8.1628     0.0185     4.0026 </r>
       <r>    -8.0881     0.0399     4.0056 </r>
       <r>    -8.0133     0.0811     4.0117 </r>
       <r>    -7.9385     0.1644     4.0240 </r>
       <r>    -7.8637     0.3169     4.0477 </r>
       <r>    -7.7889     0.5684     4.0902 </r>
       <r>    -7.7142     0.9110     4.1583 </r>
       <r>    -7.6394     1.2832     4.2543 </r>
       <r>    -7.5646     1.6004     4.3739 </r>
       <r>    -7.4898     1.8111     4.5094 </r>
       <r>    -7.4150     1.9268     4.6535 </r>
       <r>    -7.3403     2.0077     4.8036 </r>
       <r>    -7.2655     2.0985     4.9605 </r>
       <r>    -7.1907     2.1618     5.1222 </r>
       <r>    -7.1159     2.1561     5.2834 </r>
       <r>    -7.0411     2.1256     5.4424 </r>
       <r>    -6.9664     2.1361     5.6021 </r>
       <r>    -6.8916     2.2133     5.7677 </r>
       <r>    -6.8168     2.3283     5.9418 </r>
       <r>    -6.7420     2.4159     6.1226 </r>
       <r>    -6.6672     2.4607     6.3067 </r>
       <r>    -6.5925     2.5277     6.4958 </r>
       <r>    -6.5177     2.7081     6.6984 </r>
       <r>    -6.4429     3.0829     6.9290 </r>
       <r>    -6.3681     3.6528     7.2023 </r>
       <r>    -6.2933     4.2465     7.5199 </r>
       <r>    -6.2186     4.6429     7.8671 </r>
       <r>    -6.1438     4.8007     8.2262 </r>
       <r>    -6.0690     4.8847     8.5915 </r>
       <r>    -5.9942     5.0414     8.9686 </r>
       <r>    -5.9195     5.3019     9.3651 </r>
       <r>    -5.8447     5.6760     9.7897 </r>
       <r>    -5.7699     6.1726    10.2515 </r>
       <r>    -5.6951     6.7393    10.7554 </r>
       <r>    -5.6203     7.3571    11.3057 </r>
       <r>    -5.5456     8.2334    11.9215 </r>
       <r>    -5.4708     9.6798    12.6456 </r>
       <r>    -5.3960    11.8838    13.5345 </r>
       <r>    -5.3212    14.7988    14.6413 </r>
       <r>    -5.2464    18.1022    15.9951 </r>
       <r>    -5.1717    21.2820    17.5867 </r>
       <r>    -5.0969    23.9452    19.3775 </r>
       <r>    -5.0221    25.9002    21.3145 </r>
       <r>    -4.9473    27.1804    23.3472 </r>
       <r>    -4.8725    28.1607    25.4533 </r>
       <r>    -4.7978    29.2636    27.6420 </r>
       <r>    -4.7230    30.6043    29.9306 </r>
       <r>    -4.6482    31.9879    32.3229 </r>
       <r>    -4.5734    33.0907    34.7977 </r>
       <r>    -4.4986    33.9883    37.3399 </r>
       <r>    -4.4239    35.3314    39.9830 </r>
       <r>    -4.3491    37.6721    42.8007 </r>
       <r>    -4.2743    41.0089    45.8684 </r>
       <r>    -4.1995    44.8906    49.2264 </r>
       <r>    -4.1248    48.5002    52.8542 </r>
       <r>    -4.0500    50.9641    56.6661 </r>
       <r>    -3.9752    51.8619    60.5457 </r>
       <r>    -3.9004    51.4090    64.3909 </r>
       <r>    -3.8256    50.0859    68.1377 </r>
       <r>    -3.7509    48.0757    71.7345 </r>
       <r>    -3.6761    45.2819    75.1213 </r>
       <r>    -3.6013    41.9599    78.2601 </r>
       <r>    -3.5265    38.8972    81.1701 </r>
       <r>    -3.4517    36.9097    83.9319 </r>
       <r>    -3.3770    36.7178    86.6795 </r>
       <r>    -3.3022    38.6574    89.5726 </r>
       <r>    -3.2274    41.9795    92.7137 </r>
       <r>    -3.1526    45.1173    96.0895 </r>
       <r>    -3.0778    47.0122    99.6070 </r>
       <r>    -3.0031    47.9047   103.1912 </r>
       <r>    -2.9283    48.6683   106.8326 </r>
       <r>    -2.8535    49.6909   110.5504 </r>
       <r>    -2.7787    50.5509   114.3317 </r>
       <r>    -2.7039    50.6978   118.1243 </r>
       <r>    -2.6292    50.2748   121.8849 </r>
       <r>    -2.5544    49.8229   125.6115 </r>
       <r>    -2.4796    49.7768   129.3353 </r>
       <r>    -2.4048    50.5696   133.1188 </r>
       <r>    -2.3300    52.4398   137.0424 </r>
       <r>    -2.2553    55.0626   141.1617 </r>
       <r>    -2.1805    58.0133   145.5016 </r>
       <r>    -2.1057    61.0705   150.0697 </r>
       <r>    -2.0309    63.7634   154.8399 </r>
       <r>    -1.9562    65.8585   159.7672 </r>
       <r>    -1.8814    67.9897   164.8532 </r>
       <r>    -1.8066    70.8076   170.1498 </r>
       <r>    -1.7318    73.8256   175.6725 </r>
       <r>    -1.6570    76.0623   181.3623 </r>
       <r>    -1.5823    77.4073   187.1519 </r>
       <r>    -1.5075    78.2323   193.0047 </r>
       <r>    -1.4327    78.4063   198.8697 </r>
       <r>    -1.3579    77.3147   204.6533 </r>
       <r>    -1.2831    74.2719   210.2097 </r>
       <r>    -1.2084    69.1889   215.3864 </r>
       <r>    -1.1336    62.9543   220.0963 </r>
       <r>    -1.0588    56.8920   224.3527 </r>
       <r>    -0.9840    52.0941   228.2512 </r>
       <r>    -0.9092    49.3442   231.9446 </r>
       <r>    -0.8345    49.0319   235.6137 </r>
       <r>    -0.7597    50.8343   239.4181 </r>
       <r>    -0.6849    53.9834   243.4579 </r>
       <r>    -0.6101    57.2594   247.7426 </r>
       <r>    -0.5353    58.9209   252.1521 </r>
       <r>    -0.4606    57.9526   256.4887 </r>
       <r>    -0.3858    55.3609   260.6316 </r>
       <r>    -0.3110    53.0952   264.6039 </r>
       <r>    -0.2362    52.1573   268.5061 </r>
       <r>    -0.1615    52.4589   272.4307 </r>
       <r>    -0.0867    53.4811   276.4312 </r>
       <r>    -0.0119    54.7994   280.5309 </r>
       <r>     0.0629    56.5429   284.7610 </r>
       <r>     0.1377    58.8591   289.1643 </r>
       <r>     0.2124    61.2552   293.7476 </r>
       <r>     0.2872    63.0094   298.4625 </r>
       <r>     0.3620    63.5517   303.2170 </r>
       <r>     0.4368    62.3841   307.8834 </r>
       <r>     0.5116    59.5769   312.3403 </r>
       <r>     0.5863    56.2320   316.5473 </r>
       <r>     0.6611    53.8626   320.5768 </r>
       <r>     0.7359    53.0703   324.5478 </r>
       <r>     0.8107    53.3355   328.5380 </r>
       <r>     0.8855    54.0667   332.5831 </r>
       <r>     0.9602    55.3944   336.7279 </r>
       <r>     1.0350    57.9752   341.0655 </r>
       <r>     1.1098    61.8748   345.6949 </r>
       <r>     1.1846    66.0477   350.6365 </r>
       <r>     1.2594    69.2941   355.8209 </r>
       <r>     1.3341    70.8238   361.1191 </r>
       <r>     1.4089    70.0883   366.3616 </r>
       <r>     1.4837    66.7833   371.3572 </r>
       <r>     1.5585    61.2422   375.9390 </r>
       <r>     1.6333    54.5015   380.0164 </r>
       <r>     1.7080    47.3422   383.5593 </r>
       <r>     1.7828    39.8740   386.5427 </r>
       <r>     1.8576    32.5588   388.9790 </r>
       <r>     1.9324    26.4920   390.9627 </r>
       <r>     2.0071    22.1142   392.6191 </r>
       <r>     2.0819    18.9364   394.0380 </r>
       <r>     2.1567    16.5337   395.2772 </r>
       <r>     2.2315    14.7863   396.3858 </r>
       <r>     2.3063    13.6137   397.4067 </r>
       <r>     2.3810    12.8879   398.3726 </r>
       <r>     2.4558    12.3861   399.3003 </r>
       <r>     2.5306    11.9538   400.1965 </r>
       <r>     2.6054    11.6135   401.0662 </r>
       <r>     2.6802    11.4138   401.9203 </r>
       <r>     2.7549    11.4497   402.7771 </r>
       <r>     2.8297    11.7288   403.6552 </r>
       <r>     2.9045    12.1347   404.5630 </r>
       <r>     2.9793    12.5531   405.5022 </r>
       <r>     3.0541    12.8337   406.4626 </r>
       <r>     3.1288    12.8072   407.4205 </r>
       <r>     3.2036    12.5462   408.3594 </r>
       <r>     3.2784    12.4663   409.2919 </r>
       <r>     3.3532    12.8233   410.2514 </r>
       <r>     3.4280    13.3264   411.2483 </r>
       <r>     3.5027    13.4184   412.2522 </r>
       <r>     3.5775    12.8844   413.2161 </r>
       <r>     3.6523    12.0185   414.1153 </r>
       <r>     3.7271    11.3619   414.9653 </r>
       <r>     3.8018    11.2784   415.8090 </r>
       <r>     3.8766    11.6497   416.6808 </r>
       <r>     3.9514    12.0029   417.5789 </r>
       <r>     4.0262    11.9967   418.4765 </r>
       <r>     4.1010    11.6836   419.3503 </r>
       <r>     4.1757    11.4439   420.2066 </r>
       <r>     4.2505    11.5285   421.0693 </r>
       <r>     4.3253    11.7168   421.9462 </r>
       <r>     4.4001    11.6228   422.8157 </r>
       <r>     4.4749    11.1955   423.6532 </r>
       <r>     4.5496    10.7913   424.4604 </r>
       <r>     4.6244    10.8547   425.2726 </r>
       <r>     4.6992    11.3953   426.1252 </r>
       <r>     4.7740    11.9474   427.0192 </r>
       <r>     4.8488    12.0919   427.9239 </r>
       <r>     4.9235    11.7583   428.8035 </r>
       <r>     4.9983    11.1692   429.6390 </r>
       <r>     5.0731    10.6486   430.4359 </r>
       <r>     5.1479    10.3936   431.2136 </r>
       <r>     5.2227    10.3527   431.9883 </r>
       <r>     5.2974    10.3818   432.7650 </r>
       <r>     5.3722    10.4336   433.5454 </r>
       <r>     5.4470    10.6083   434.3389 </r>
       <r>     5.5218    10.9268   435.1566 </r>
       <r>     5.5965    11.2185   435.9960 </r>
       <r>     5.6713    11.2699   436.8393 </r>
       <r>     5.7461    11.0793   437.6682 </r>
       <r>     5.8209    10.7667   438.4737 </r>
       <r>     5.8957    10.3465   439.2477 </r>
       <r>     5.9704     9.8665   439.9859 </r>
       <r>     6.0452     9.5131   440.6977 </r>
       <r>     6.1200     9.4385   441.4041 </r>
       <r>     6.1948     9.6293   442.1243 </r>
       <r>     6.2696     9.9451   442.8686 </r>
       <r>     6.3443    10.2195   443.6329 </r>
       <r>     6.4191    10.3225   444.4056 </r>
       <r>     6.4939    10.1917   445.1681 </r>
       <r>     6.5687     9.7957   445.9009 </r>
       <r>     6.6435     9.2136   446.5904 </r>
       <r>     6.7182     8.5869   447.2330 </r>
       <r>     6.7930     7.9916   447.8310 </r>
       <r>     6.8678     7.3384   448.3800 </r>
       <r>     6.9426     6.4273   448.8610 </r>
       <r>     7.0174     5.1892   449.2493 </r>
       <r>     7.0921     3.8029   449.5342 </r>
       <r>     7.1669     2.5483   449.7251 </r>
       <r>     7.2417     1.5820   449.8438 </r>
       <r>     7.3165     0.9309   449.9139 </r>
       <r>     7.3913     0.5323   449.9540 </r>
       <r>     7.4660     0.2944   449.9764 </r>
       <r>     7.5408     0.1564   449.9883 </r>
       <r>     7.6156     0.0780   449.9944 </r>
       <r>     7.6904     0.0362   449.9975 </r>
       <r>     7.7651     0.0147   449.9990 </r>
       <r>     7.8399     0.0064   449.9996 </r>
       <r>     7.9147     0.0023   449.9998 </r>
       <r>     7.9895     0.0009   449.9999 </r>
       <r>     8.0643     0.0004   450.0000 </r>
       <r>     8.1390     0.0002   450.0000 </r>
       <r>     8.2138     0.0000   450.0000 </r>
       <r>     8.2886     0.0000   450.0000 </r>
       <r>     8.3634     0.0000   450.0000 </r>
      </set>
     </set>
    </array>
   </total>
  </dos>
 </calculation>
 <structure name="finalpos" >
  <crystal>
   <varray name="basis" >
    <v>       8.42164176       0.00000000       0.00000000 </v>
    <v>       4.21082088       7.29335571       0.00000000 </v>
    <v>       0.00000000       0.00000000      21.87624171 </v>
   </varray>
   <i name="volume">   1343.68315334 </i>
   <varray name="rec_basis" >
    <v>       0.11874169      -0.06855555       0.00000000 </v>
    <v>       0.00000000       0.13711110       0.00000000 </v>
    <v>       0.00000000       0.00000000       0.04571169 </v>
   </varray>
  </crystal>
  <varray name="positions" >
   <v>       0.00000000       0.00000000       0.34283768 </v>
   <v>       0.33333333       0.00000000       0.34283768 </v>
   <v>       0.66666667       0.00000000       0.34283768 </v>
   <v>       0.00000000       0.33333333       0.34283768 </v>
   <v>       0.33333333       0.33333333       0.34283768 </v>
   <v>       0.66666667       0.33333333       0.34283768 </v>
   <v>       0.00000000       0.66666667       0.34283768 </v>
   <v>       0.33333333       0.66666667       0.34283768 </v>
   <v>       0.66666667       0.66666667       0.34283768 </v>
   <v>       0.11111111       0.11111111       0.44761256 </v>
   <v>       0.44444444       0.11111111       0.44761256 </v>
   <v>       0.77777778       0.11111111       0.44761256 </v>
   <v>       0.11111111       0.44444444       0.44761256 </v>
   <v>       0.44444444       0.44444444       0.44761256 </v>
   <v>       0.77777778       0.44444444       0.44761256 </v>
   <v>       0.11111111       0.77777778       0.44761256 </v>
   <v>       0.44444444       0.77777778       0.44761256 </v>
   <v>       0.77777778       0.77777778       0.44761256 </v>
   <v>       0.88495693       0.22522187       0.55203879 </v>
   <v>       0.22142843       0.22508370       0.55204766 </v>
   <v>       0.55316765       0.22504588       0.55228202 </v>
   <v>       0.88732204       0.55715353       0.55098682 </v>
   <v>       0.22156970       0.55690302       0.55232248 </v>
   <v>       0.55311842       0.55702508       0.55228514 </v>
   <v>       0.88737411       0.89103991       0.55098513 </v>
   <v>       0.22130356       0.88901819       0.55213548 </v>
   <v>       0.55341960       0.89089348       0.55101330 </v>
   <v>       0.99622335       0.00444926       0.65642153 </v>
   <v>       0.32961233       0.00450581       0.65643461 </v>
   <v>       0.66457578       0.00034614       0.65615278 </v>
   <v>       0.99626747       0.33770696       0.65642370 </v>
   <v>       0.32684417       0.33590312       0.66279513 </v>
   <v>       0.66737072       0.33519004       0.66256045 </v>
   <v>       0.99219393       0.67310349       0.65610779 </v>
   <v>       0.32719979       0.67593348       0.66275721 </v>
   <v>       0.66505305       0.67263577       0.65616044 </v>
   <v>       0.44073605       0.44906727       0.71499572 </v>
   <v>       0.44117200       0.44887069       0.78320827 </v>
   <v>       0.29980087       0.52466216       0.80082555 </v>
   <v>       0.50692803       0.30738149       0.80071518 </v>
   <v>       0.51705811       0.51453485       0.80072640 </v>
  </varray>
  <varray name="selective"  type="logical" >
   <v type="logical" >  F  F  F </v>
   <v type="logical" >  F  F  F </v>
   <v type="logical" >  F  F  F </v>
   <v type="logical" >  F  F  F </v>
   <v type="logical" >  F  F  F </v>
   <v type="logical" >  F  F  F </v>
   <v type="logical" >  F  F  F </v>
   <v type="logical" >  F  F  F </v>
   <v type="logical" >  F  F  F </v>
   <v type="logical" >  F  F  F </v>
   <v type="logical" >  F  F  F </v>
   <v type="logical" >  F  F  F </v>
   <v type="logical" >  F  F  F </v>
   <v type="logical" >  F  F  F </v>
   <v type="logical" >  F  F  F </v>
   <v type="logical" >  F  F  F </v>
   <v type="logical" >  F  F  F </v>
   <v type="logical" >  F  F  F </v>
   <v type="logical" >  T  T  T </v>
   <v type="logical" >  T  T  T </v>
   <v type="logical" >  T  T  T </v>
   <v type="logical" >  T  T  T </v>
   <v type="logical" >  T  T  T </v>
   <v type="logical" >  T  T  T </v>
   <v type="logical" >  T  T  T </v>
   <v type="logical" >  T  T  T </v>
   <v type="logical" >  T  T  T </v>
   <v type="logical" >  T  T  T </v>
   <v type="logical" >  T  T  T </v>
   <v type="logical" >  T  T  T </v>
   <v type="logical" >  T  T  T </v>
   <v type="logical" >  T  T  T </v>
   <v type="logical" >  T  T  T </v>
   <v type="logical" >  T  T  T </v>
   <v type="logical" >  T  T  T </v>
   <v type="logical" >  T  T  T </v>
   <v type="logical" >  T  T  T </v>
   <v type="logical" >  T  T  T </v>
   <v type="logical" >  T  T  T </v>
   <v type="logical" >  T  T  T </v>
   <v type="logical" >  T  T  T </v>
  </varray>
  <nose>
   <v>      -3.00000000       0.00000000       0.00010000       0.00010000 </v>
  </nose>
 </structure>
</modeling>
