    5    5    1    1
  0.1600000E+04  0.2000000E-08  0.2000000E-08  0.2000000E-08  0.5000000E-15
  1.000000000000000E-004
  CAR 
 unknown system                          
      8      1     10
 
  0.0000000E+00  0.0000000E+00  0.0000000E+00  0.1000000E+01
    1      -17.004446   1.000000
    2       -9.428456   1.000000
    3       -9.396765   1.000000
    4       -9.385330   1.000000
    5       -0.414021   0.000000
    6        0.047276   0.000000
    7        0.286291   0.000000
    8        0.286665   0.000000
    9        0.286841   0.000000
   10        0.324999   0.000000
