unknown system                          
           1
     8.421642    0.000000    0.000000
     4.210821    7.293356    0.000000
     0.000000    0.000000   21.876242
   Pt   C    H 
  36   2   1
Direct configuration=     1
   0.00000000  0.00000000  0.34283768
   0.33333333  0.00000000  0.34283768
   0.66666667  0.00000000  0.34283768
   0.00000000  0.33333333  0.34283768
   0.33333333  0.33333333  0.34283768
   0.66666667  0.33333333  0.34283768
   0.00000000  0.66666667  0.34283768
   0.33333333  0.66666667  0.34283768
   0.66666667  0.66666667  0.34283768
   0.11111111  0.11111111  0.44761256
   0.44444444  0.11111111  0.44761256
   0.77777778  0.11111111  0.44761256
   0.11111111  0.44444444  0.44761256
   0.44444444  0.44444444  0.44761256
   0.77777778  0.44444444  0.44761256
   0.11111111  0.77777778  0.44761256
   0.44444444  0.77777778  0.44761256
   0.77777778  0.77777778  0.44761256
   0.88714077  0.22392945  0.55208032
   0.22297079  0.22324692  0.55161660
   0.55595078  0.22259753  0.55238561
   0.88938321  0.55594107  0.55057290
   0.22391612  0.55246867  0.55262860
   0.55722153  0.55397859  0.55203691
   0.88585255  0.89046121  0.55262677
   0.22265102  0.88922120  0.55008305
   0.55667331  0.88962339  0.55158730
   0.00695774  0.99846546  0.65604209
   0.33114597  0.99745697  0.65648795
   0.67614115  0.98795534  0.66157622
   0.00096940  0.33510869  0.65599162
   0.32171966  0.34223996  0.66168366
   0.67629492  0.34244037  0.66198868
   0.00144582  0.66763133  0.65607549
   0.33211025  0.67334710  0.65604380
   0.66878329  0.66740125  0.65600641
   0.48394774  0.14859719  0.73195829
   0.57132375  0.23935189  0.71427947
   0.44526070  0.10940571  0.77425990
