   2   2   0   0
  0.4000000E+04  0.2000000E-08  0.2000000E-08  0.2000000E-08  0.5000000E-15
  1.000000000000000E-004
  CAR 
 unknown system                          
      1.31734696    -11.37308885  301     -7.98897264      1.00000000
    -11.373  0.0000E+00  0.0000E+00
    -11.331  0.0000E+00  0.0000E+00
    -11.288  0.0000E+00  0.0000E+00
    -11.246  0.0000E+00  0.0000E+00
    -11.204  0.1165E-01  0.4930E-03
    -11.162  0.6134E-02  0.7525E-03
    -11.119  0.9361E-02  0.1148E-02
    -11.077  0.1428E-01  0.1753E-02
    -11.035  0.2179E-01  0.2674E-02
    -10.992  0.3322E-01  0.4080E-02
    -10.950  0.5062E-01  0.6221E-02
    -10.908  0.7707E-01  0.9481E-02
    -10.865  0.1172E+00  0.1444E-01
    -10.823  0.1777E+00  0.2196E-01
    -10.781  0.2688E+00  0.3332E-01
    -10.739  0.4044E+00  0.5043E-01
    -10.696  0.6039E+00  0.7598E-01
    -10.654  0.8920E+00  0.1137E+00
    -10.612  0.1296E+01  0.1685E+00
    -10.569  0.1839E+01  0.2463E+00
    -10.527  0.2525E+01  0.3532E+00
    -10.485  0.3312E+01  0.4932E+00
    -10.442  0.4094E+01  0.6664E+00
    -10.400  0.4706E+01  0.8655E+00
    -10.358  0.4977E+01  0.1076E+01
    -10.316  0.4822E+01  0.1280E+01
    -10.273  0.4290E+01  0.1461E+01
    -10.231  0.3537E+01  0.1611E+01
    -10.189  0.2738E+01  0.1727E+01
    -10.146  0.2018E+01  0.1812E+01
    -10.104  0.1433E+01  0.1873E+01
    -10.062  0.9921E+00  0.1915E+01
    -10.019  0.6744E+00  0.1943E+01
     -9.977  0.4528E+00  0.1963E+01
     -9.935  0.3015E+00  0.1975E+01
     -9.893  0.1996E+00  0.1984E+01
     -9.850  0.1317E+00  0.1989E+01
     -9.808  0.8666E-01  0.1993E+01
     -9.766  0.5694E-01  0.1995E+01
     -9.723  0.3738E-01  0.1997E+01
     -9.681  0.2452E-01  0.1998E+01
     -9.639  0.1607E-01  0.1999E+01
     -9.596  0.1054E-01  0.1999E+01
     -9.554  0.0000E+00  0.2000E+01
     -9.512  0.0000E+00  0.2000E+01
     -9.470  0.0000E+00  0.2000E+01
     -9.427  0.0000E+00  0.2000E+01
     -9.385  0.0000E+00  0.2000E+01
     -9.343  0.0000E+00  0.2000E+01
     -9.300  0.0000E+00  0.2000E+01
     -9.258  0.0000E+00  0.2000E+01
     -9.216  0.0000E+00  0.2000E+01
     -9.173  0.0000E+00  0.2000E+01
     -9.131  0.0000E+00  0.2000E+01
     -9.089  0.0000E+00  0.2000E+01
     -9.047  0.0000E+00  0.2000E+01
     -9.004  0.0000E+00  0.2000E+01
     -8.962  0.0000E+00  0.2000E+01
     -8.920  0.0000E+00  0.2000E+01
     -8.877  0.0000E+00  0.2000E+01
     -8.835  0.0000E+00  0.2000E+01
     -8.793  0.0000E+00  0.2000E+01
     -8.750  0.0000E+00  0.2000E+01
     -8.708  0.0000E+00  0.2000E+01
     -8.666  0.0000E+00  0.2000E+01
     -8.623  0.0000E+00  0.2000E+01
     -8.581  0.0000E+00  0.2000E+01
     -8.539  0.0000E+00  0.2000E+01
     -8.497  0.0000E+00  0.2000E+01
     -8.454  0.0000E+00  0.2000E+01
     -8.412  0.0000E+00  0.2000E+01
     -8.370  0.0000E+00  0.2000E+01
     -8.327  0.0000E+00  0.2000E+01
     -8.285  0.0000E+00  0.2000E+01
     -8.243  0.0000E+00  0.2000E+01
     -8.200  0.0000E+00  0.2000E+01
     -8.158  0.0000E+00  0.2000E+01
     -8.116  0.0000E+00  0.2000E+01
     -8.074  0.0000E+00  0.2000E+01
     -8.031  0.0000E+00  0.2000E+01
     -7.989  0.0000E+00  0.2000E+01
     -7.947  0.0000E+00  0.2000E+01
     -7.904  0.0000E+00  0.2000E+01
     -7.862  0.0000E+00  0.2000E+01
     -7.820  0.0000E+00  0.2000E+01
     -7.777  0.0000E+00  0.2000E+01
     -7.735  0.0000E+00  0.2000E+01
     -7.693  0.0000E+00  0.2000E+01
     -7.651  0.0000E+00  0.2000E+01
     -7.608  0.0000E+00  0.2000E+01
     -7.566  0.0000E+00  0.2000E+01
     -7.524  0.0000E+00  0.2000E+01
     -7.481  0.0000E+00  0.2000E+01
     -7.439  0.0000E+00  0.2000E+01
     -7.397  0.0000E+00  0.2000E+01
     -7.354  0.0000E+00  0.2000E+01
     -7.312  0.0000E+00  0.2000E+01
     -7.270  0.0000E+00  0.2000E+01
     -7.228  0.0000E+00  0.2000E+01
     -7.185  0.0000E+00  0.2000E+01
     -7.143  0.0000E+00  0.2000E+01
     -7.101  0.0000E+00  0.2000E+01
     -7.058  0.0000E+00  0.2000E+01
     -7.016  0.0000E+00  0.2000E+01
     -6.974  0.0000E+00  0.2000E+01
     -6.931  0.0000E+00  0.2000E+01
     -6.889  0.0000E+00  0.2000E+01
     -6.847  0.0000E+00  0.2000E+01
     -6.805  0.0000E+00  0.2000E+01
     -6.762  0.0000E+00  0.2000E+01
     -6.720  0.0000E+00  0.2000E+01
     -6.678  0.0000E+00  0.2000E+01
     -6.635  0.0000E+00  0.2000E+01
     -6.593  0.0000E+00  0.2000E+01
     -6.551  0.0000E+00  0.2000E+01
     -6.508  0.0000E+00  0.2000E+01
     -6.466  0.0000E+00  0.2000E+01
     -6.424  0.0000E+00  0.2000E+01
     -6.382  0.0000E+00  0.2000E+01
     -6.339  0.0000E+00  0.2000E+01
     -6.297  0.0000E+00  0.2000E+01
     -6.255  0.0000E+00  0.2000E+01
     -6.212  0.0000E+00  0.2000E+01
     -6.170  0.0000E+00  0.2000E+01
     -6.128  0.0000E+00  0.2000E+01
     -6.085  0.0000E+00  0.2000E+01
     -6.043  0.0000E+00  0.2000E+01
     -6.001  0.0000E+00  0.2000E+01
     -5.959  0.0000E+00  0.2000E+01
     -5.916  0.0000E+00  0.2000E+01
     -5.874  0.0000E+00  0.2000E+01
     -5.832  0.0000E+00  0.2000E+01
     -5.789  0.0000E+00  0.2000E+01
     -5.747  0.0000E+00  0.2000E+01
     -5.705  0.0000E+00  0.2000E+01
     -5.662  0.0000E+00  0.2000E+01
     -5.620  0.0000E+00  0.2000E+01
     -5.578  0.0000E+00  0.2000E+01
     -5.535  0.0000E+00  0.2000E+01
     -5.493  0.0000E+00  0.2000E+01
     -5.451  0.0000E+00  0.2000E+01
     -5.409  0.0000E+00  0.2000E+01
     -5.366  0.0000E+00  0.2000E+01
     -5.324  0.0000E+00  0.2000E+01
     -5.282  0.0000E+00  0.2000E+01
     -5.239  0.0000E+00  0.2000E+01
     -5.197  0.0000E+00  0.2000E+01
     -5.155  0.0000E+00  0.2000E+01
     -5.112  0.0000E+00  0.2000E+01
     -5.070  0.0000E+00  0.2000E+01
     -5.028  0.0000E+00  0.2000E+01
     -4.986  0.0000E+00  0.2000E+01
     -4.943  0.0000E+00  0.2000E+01
     -4.901  0.0000E+00  0.2000E+01
     -4.859  0.0000E+00  0.2000E+01
     -4.816  0.0000E+00  0.2000E+01
     -4.774  0.0000E+00  0.2000E+01
     -4.732  0.0000E+00  0.2000E+01
     -4.689  0.0000E+00  0.2000E+01
     -4.647  0.0000E+00  0.2000E+01
     -4.605  0.0000E+00  0.2000E+01
     -4.563  0.0000E+00  0.2000E+01
     -4.520  0.0000E+00  0.2000E+01
     -4.478  0.0000E+00  0.2000E+01
     -4.436  0.0000E+00  0.2000E+01
     -4.393  0.0000E+00  0.2000E+01
     -4.351  0.0000E+00  0.2000E+01
     -4.309  0.0000E+00  0.2000E+01
     -4.266  0.0000E+00  0.2000E+01
     -4.224  0.0000E+00  0.2000E+01
     -4.182  0.0000E+00  0.2000E+01
     -4.140  0.0000E+00  0.2000E+01
     -4.097  0.0000E+00  0.2000E+01
     -4.055  0.0000E+00  0.2000E+01
     -4.013  0.0000E+00  0.2000E+01
     -3.970  0.0000E+00  0.2000E+01
     -3.928  0.0000E+00  0.2000E+01
     -3.886  0.0000E+00  0.2000E+01
     -3.843  0.0000E+00  0.2000E+01
     -3.801  0.0000E+00  0.2000E+01
     -3.759  0.0000E+00  0.2000E+01
     -3.717  0.0000E+00  0.2000E+01
     -3.674  0.0000E+00  0.2000E+01
     -3.632  0.0000E+00  0.2000E+01
     -3.590  0.0000E+00  0.2000E+01
     -3.547  0.0000E+00  0.2000E+01
     -3.505  0.0000E+00  0.2000E+01
     -3.463  0.0000E+00  0.2000E+01
     -3.420  0.0000E+00  0.2000E+01
     -3.378  0.0000E+00  0.2000E+01
     -3.336  0.0000E+00  0.2000E+01
     -3.294  0.0000E+00  0.2000E+01
     -3.251  0.0000E+00  0.2000E+01
     -3.209  0.0000E+00  0.2000E+01
     -3.167  0.0000E+00  0.2000E+01
     -3.124  0.0000E+00  0.2000E+01
     -3.082  0.0000E+00  0.2000E+01
     -3.040  0.0000E+00  0.2000E+01
     -2.997  0.0000E+00  0.2000E+01
     -2.955  0.0000E+00  0.2000E+01
     -2.913  0.0000E+00  0.2000E+01
     -2.870  0.0000E+00  0.2000E+01
     -2.828  0.0000E+00  0.2000E+01
     -2.786  0.0000E+00  0.2000E+01
     -2.744  0.0000E+00  0.2000E+01
     -2.701  0.0000E+00  0.2000E+01
     -2.659  0.0000E+00  0.2000E+01
     -2.617  0.0000E+00  0.2000E+01
     -2.574  0.0000E+00  0.2000E+01
     -2.532  0.0000E+00  0.2000E+01
     -2.490  0.0000E+00  0.2000E+01
     -2.447  0.0000E+00  0.2000E+01
     -2.405  0.0000E+00  0.2000E+01
     -2.363  0.0000E+00  0.2000E+01
     -2.321  0.0000E+00  0.2000E+01
     -2.278  0.0000E+00  0.2000E+01
     -2.236  0.0000E+00  0.2000E+01
     -2.194  0.0000E+00  0.2000E+01
     -2.151  0.0000E+00  0.2000E+01
     -2.109  0.0000E+00  0.2000E+01
     -2.067  0.0000E+00  0.2000E+01
     -2.024  0.0000E+00  0.2000E+01
     -1.982  0.0000E+00  0.2000E+01
     -1.940  0.0000E+00  0.2000E+01
     -1.898  0.0000E+00  0.2000E+01
     -1.855  0.0000E+00  0.2000E+01
     -1.813  0.0000E+00  0.2000E+01
     -1.771  0.0000E+00  0.2000E+01
     -1.728  0.0000E+00  0.2000E+01
     -1.686  0.0000E+00  0.2000E+01
     -1.644  0.0000E+00  0.2000E+01
     -1.601  0.0000E+00  0.2000E+01
     -1.559  0.0000E+00  0.2000E+01
     -1.517  0.0000E+00  0.2000E+01
     -1.475  0.0000E+00  0.2000E+01
     -1.432  0.0000E+00  0.2000E+01
     -1.390  0.0000E+00  0.2000E+01
     -1.348  0.0000E+00  0.2000E+01
     -1.305  0.0000E+00  0.2000E+01
     -1.263  0.0000E+00  0.2000E+01
     -1.221  0.0000E+00  0.2000E+01
     -1.178  0.0000E+00  0.2000E+01
     -1.136  0.0000E+00  0.2000E+01
     -1.094  0.0000E+00  0.2000E+01
     -1.052  0.0000E+00  0.2000E+01
     -1.009  0.0000E+00  0.2000E+01
     -0.967  0.0000E+00  0.2000E+01
     -0.925  0.0000E+00  0.2000E+01
     -0.882  0.1204E-01  0.2001E+01
     -0.840  0.6336E-02  0.2001E+01
     -0.798  0.9669E-02  0.2001E+01
     -0.755  0.1475E-01  0.2002E+01
     -0.713  0.2250E-01  0.2003E+01
     -0.671  0.3431E-01  0.2004E+01
     -0.629  0.6764E-01  0.2007E+01
     -0.586  0.9838E-01  0.2011E+01
     -0.544  0.1390E+00  0.2017E+01
     -0.502  0.2240E+00  0.2027E+01
     -0.459  0.3261E+00  0.2040E+01
     -0.417  0.4914E+00  0.2061E+01
     -0.375  0.7357E+00  0.2092E+01
     -0.332  0.1091E+01  0.2138E+01
     -0.290  0.1595E+01  0.2206E+01
     -0.248  0.2285E+01  0.2303E+01
     -0.206  0.3184E+01  0.2437E+01
     -0.163  0.4279E+01  0.2618E+01
     -0.121  0.5502E+01  0.2851E+01
     -0.079  0.6741E+01  0.3136E+01
     -0.036  0.7894E+01  0.3470E+01
      0.006  0.8946E+01  0.3849E+01
      0.048  0.9983E+01  0.4271E+01
      0.091  0.1112E+02  0.4741E+01
      0.133  0.1237E+02  0.5265E+01
      0.175  0.1358E+02  0.5839E+01
      0.218  0.1446E+02  0.6451E+01
      0.260  0.1472E+02  0.7074E+01
      0.302  0.1417E+02  0.7673E+01
      0.344  0.1285E+02  0.8217E+01
      0.387  0.1095E+02  0.8680E+01
      0.429  0.8800E+01  0.9052E+01
      0.471  0.6720E+01  0.9336E+01
      0.514  0.4919E+01  0.9544E+01
      0.556  0.3484E+01  0.9692E+01
      0.598  0.2409E+01  0.9793E+01
      0.641  0.1636E+01  0.9863E+01
      0.683  0.1099E+01  0.9909E+01
      0.725  0.7315E+00  0.9940E+01
      0.767  0.4777E+00  0.9961E+01
      0.810  0.3152E+00  0.9974E+01
      0.852  0.2074E+00  0.9983E+01
      0.894  0.1363E+00  0.9989E+01
      0.937  0.8948E-01  0.9993E+01
      0.979  0.5070E-01  0.9996E+01
      1.021  0.3325E-01  0.9997E+01
      1.064  0.1428E-01  0.9999E+01
      1.106  0.9361E-02  0.9999E+01
      1.148  0.0000E+00  0.1000E+02
      1.190  0.0000E+00  0.1000E+02
      1.233  0.0000E+00  0.1000E+02
      1.275  0.0000E+00  0.1000E+02
      1.317  0.0000E+00  0.1000E+02
