<?xml version="1.0" encoding="ISO-8859-1"?>
<modeling>
 <generator>
  <i name="program" type="string">vasp </i>
  <i name="version" type="string">5.4.1  </i>
  <i name="subversion" type="string">24Jun15 (build Oct 10 2016 12:42:00) complex                          parallel </i>
  <i name="platform" type="string">IFC91_ompi </i>
  <i name="date" type="string">2018 07 06 </i>
  <i name="time" type="string">10:51:11 </i>
 </generator>
 <incar>
  <i type="string" name="PREC">normal</i>
  <i type="string" name="ALGO"> fast</i>
  <i type="int" name="ISPIN">     1</i>
  <i type="int" name="NELMDL">    -4</i>
  <i type="int" name="NELMIN">     4</i>
  <i name="EDIFF">      0.00000100</i>
  <i name="ENCUT">    400.00000000</i>
  <i type="string" name="LREAL"> auto</i>
  <i type="int" name="ISMEAR">    -1</i>
  <i name="SIGMA">      0.10000000</i>
  <i type="logical" name="LWAVE"> F  </i>
  <i type="logical" name="LCHARG"> F  </i>
  <v type="int" name="KPOINT_BSE">    -1     0     0     0</v>
  <i type="string" name="GGA"> PE</i>
 </incar>
 <kpoints>
  <generation param="Monkhorst-Pack">
   <v type="int" name="divisions">       1        1        1 </v>
   <v name="usershift">      0.00000000       0.00000000       0.00000000 </v>
   <v name="genvec1">      1.00000000       0.00000000       0.00000000 </v>
   <v name="genvec2">      0.00000000       1.00000000       0.00000000 </v>
   <v name="genvec3">      0.00000000       0.00000000       1.00000000 </v>
   <v name="shift">      0.00000000       0.00000000       0.00000000 </v>
  </generation>
  <varray name="kpointlist" >
   <v>       0.00000000       0.00000000       0.00000000 </v>
  </varray>
  <varray name="weights" >
   <v>       1.00000000 </v>
  </varray>
 </kpoints>
 <parameters>
  <separator name="general" >
   <i type="string" name="SYSTEM">unknown system</i>
   <i type="logical" name="LCOMPAT"> F  </i>
  </separator>
  <separator name="electronic" >
   <i type="string" name="PREC">normal</i>
   <i name="ENMAX">    400.00000000</i>
   <i name="ENAUG">    400.00000000</i>
   <i name="EDIFF">      0.00000100</i>
   <i type="int" name="IALGO">    68</i>
   <i type="int" name="IWAVPR">    10</i>
   <i type="int" name="NBANDS">     5</i>
   <i name="NELECT">      2.00000000</i>
   <i type="int" name="TURBO">     0</i>
   <i type="int" name="IRESTART">     0</i>
   <i type="int" name="NREBOOT">     0</i>
   <i type="int" name="NMIN">     0</i>
   <i name="EREF">      0.00000000</i>
   <separator name="electronic smearing" >
    <i type="int" name="ISMEAR">    -1</i>
    <i name="SIGMA">      0.10000000</i>
    <i name="KSPACING">      0.50000000</i>
    <i type="logical" name="KGAMMA"> T  </i>
   </separator>
   <separator name="electronic projectors" >
    <i type="logical" name="LREAL"> T  </i>
    <v name="ROPT">     -0.00050000</v>
    <i type="int" name="LMAXPAW">  -100</i>
    <i type="int" name="LMAXMIX">     2</i>
    <i type="logical" name="NLSPLINE"> F  </i>
   </separator>
   <separator name="electronic startup" >
    <i type="int" name="ISTART">     0</i>
    <i type="int" name="ICHARG">     2</i>
    <i type="int" name="INIWAV">     1</i>
   </separator>
   <separator name="electronic spin" >
    <i type="int" name="ISPIN">     1</i>
    <i type="logical" name="LNONCOLLINEAR"> F  </i>
    <v name="MAGMOM">      1.00000000      1.00000000</v>
    <i name="NUPDOWN">     -1.00000000</i>
    <i type="logical" name="LSORBIT"> F  </i>
    <v name="SAXIS">      0.00000000      0.00000000      1.00000000</v>
    <i type="logical" name="LSPIRAL"> F  </i>
    <v name="QSPIRAL">      0.00000000      0.00000000      0.00000000</v>
    <i type="logical" name="LZEROZ"> F  </i>
   </separator>
   <separator name="electronic exchange-correlation" >
    <i type="logical" name="LASPH"> F  </i>
    <i type="logical" name="LMETAGGA"> F  </i>
   </separator>
   <separator name="electronic convergence" >
    <i type="int" name="NELM">    60</i>
    <i type="int" name="NELMDL">    -4</i>
    <i type="int" name="NELMIN">     4</i>
    <i name="ENINI">    400.00000000</i>
    <separator name="electronic convergence detail" >
     <i type="logical" name="LDIAG"> T  </i>
     <i type="logical" name="LSUBROT"> F  </i>
     <i name="WEIMIN">      0.00000000</i>
     <i name="EBREAK">      0.00000005</i>
     <i name="DEPER">      0.30000000</i>
     <i type="int" name="NRMM">     4</i>
     <i name="TIME">      0.40000000</i>
    </separator>
   </separator>
   <separator name="electronic mixer" >
    <i name="AMIX">      0.40000000</i>
    <i name="BMIX">      1.00000000</i>
    <i name="AMIN">      0.10000000</i>
    <i name="AMIX_MAG">      1.60000000</i>
    <i name="BMIX_MAG">      1.00000000</i>
    <separator name="electronic mixer details" >
     <i type="int" name="IMIX">     4</i>
     <i type="logical" name="MIXFIRST"> F  </i>
     <i type="int" name="MAXMIX">   -45</i>
     <i name="WC">    100.00000000</i>
     <i type="int" name="INIMIX">     1</i>
     <i type="int" name="MIXPRE">     1</i>
     <i type="int" name="MREMOVE">     5</i>
    </separator>
   </separator>
   <separator name="electronic dipolcorrection" >
    <i type="logical" name="LDIPOL"> F  </i>
    <i type="logical" name="LMONO"> F  </i>
    <i type="int" name="IDIPOL">     0</i>
    <i name="EPSILON">      1.00000000</i>
    <v name="DIPOL">   -100.00000000   -100.00000000   -100.00000000</v>
    <i name="EFIELD">      0.00000000</i>
   </separator>
  </separator>
  <separator name="grids" >
   <i type="int" name="NGX">    98</i>
   <i type="int" name="NGY">    98</i>
   <i type="int" name="NGZ">    98</i>
   <i type="int" name="NGXF">   196</i>
   <i type="int" name="NGYF">   196</i>
   <i type="int" name="NGZF">   196</i>
   <i type="logical" name="ADDGRID"> F  </i>
  </separator>
  <separator name="ionic" >
   <i type="int" name="NSW">     0</i>
   <i type="int" name="IBRION">    -1</i>
   <i type="int" name="ISIF">     2</i>
   <i name="PSTRESS">      0.00000000</i>
   <i name="EDIFFG">      0.00001000</i>
   <i type="int" name="NFREE">     0</i>
   <i name="POTIM">      0.50000000</i>
   <i name="SMASS">     -3.00000000</i>
   <i name="SCALEE">      1.00000000</i>
  </separator>
  <separator name="ionic md" >
   <i name="TEBEG">      0.00010000</i>
   <i name="TEEND">      0.00010000</i>
   <i type="int" name="NBLOCK">     1</i>
   <i type="int" name="KBLOCK">     1</i>
   <i type="int" name="NPACO">   256</i>
   <i name="APACO">     16.00000000</i>
  </separator>
  <separator name="symmetry" >
   <i type="int" name="ISYM">     2</i>
   <i name="SYMPREC">      0.00001000</i>
  </separator>
  <separator name="dos" >
   <i type="logical" name="LORBIT"> F  </i>
   <v name="RWIGS">     -1.00000000</v>
   <i type="int" name="NEDOS">   301</i>
   <i name="EMIN">     10.00000000</i>
   <i name="EMAX">    -10.00000000</i>
   <i name="EFERMI">      0.00000000</i>
  </separator>
  <separator name="writing" >
   <i type="int" name="NWRITE">     2</i>
   <i type="logical" name="LWAVE"> F  </i>
   <i type="logical" name="LCHARG"> F  </i>
   <i type="logical" name="LPARD"> F  </i>
   <i type="logical" name="LVTOT"> F  </i>
   <i type="logical" name="LVHAR"> F  </i>
   <i type="logical" name="LELF"> F  </i>
   <i type="logical" name="LOPTICS"> F  </i>
   <v name="STM">      0.00000000      0.00000000      0.00000000      0.00000000      0.00000000      0.00000000      0.00000000</v>
  </separator>
  <separator name="performance" >
   <i type="int" name="NPAR">     5</i>
   <i type="int" name="NSIM">     4</i>
   <i type="int" name="NBLK">    -1</i>
   <i type="logical" name="LPLANE"> T  </i>
   <i type="logical" name="LSCALAPACK"> T  </i>
   <i type="logical" name="LSCAAWARE"> F  </i>
   <i type="logical" name="LSCALU"> F  </i>
   <i type="logical" name="LASYNC"> F  </i>
   <i type="logical" name="LORBITALREAL"> F  </i>
  </separator>
  <separator name="miscellaneous" >
   <i type="int" name="IDIOT">     3</i>
   <i type="logical" name="LMUSIC"> F  </i>
   <v name="POMASS">      1.00000000</v>
   <v name="DARWINR">      0.00000000</v>
   <v name="DARWINV">      1.00000000</v>
   <i type="logical" name="LCORR"> T  </i>
  </separator>
  <i type="logical" name="GGA_COMPAT"> T  </i>
  <i type="logical" name="LBERRY"> F  </i>
  <i type="int" name="ICORELEVEL">     0</i>
  <i type="logical" name="LDAU"> F  </i>
  <i type="int" name="I_CONSTRAINED_M">     0</i>
  <separator name="electronic exchange-correlation" >
   <i type="string" name="GGA">PE</i>
   <i type="int" name="VOSKOWN">     0</i>
   <i type="logical" name="LHFCALC"> F  </i>
   <i type="string" name="PRECFOCK"></i>
   <i type="logical" name="LSYMGRAD"> F  </i>
   <i type="logical" name="LHFONE"> F  </i>
   <i type="logical" name="LRHFCALC"> F  </i>
   <i type="logical" name="LTHOMAS"> F  </i>
   <i type="logical" name="LMODELHF"> F  </i>
   <i name="ENCUT4O">     -1.00000000</i>
   <i type="int" name="EXXOEP">     0</i>
   <i type="int" name="FOURORBIT">     0</i>
   <i name="AEXX">      0.00000000</i>
   <i name="HFALPHA">      0.00000000</i>
   <i name="MCALPHA">      0.00000000</i>
   <i name="ALDAX">      1.00000000</i>
   <i name="AGGAX">      1.00000000</i>
   <i name="ALDAC">      1.00000000</i>
   <i name="AGGAC">      1.00000000</i>
   <i type="int" name="NKREDX">     1</i>
   <i type="int" name="NKREDY">     1</i>
   <i type="int" name="NKREDZ">     1</i>
   <i type="logical" name="SHIFTRED"> F  </i>
   <i type="logical" name="ODDONLY"> F  </i>
   <i type="logical" name="EVENONLY"> F  </i>
   <i type="int" name="LMAXFOCK">     0</i>
   <i type="int" name="NMAXFOCKAE">     0</i>
   <i type="logical" name="LFOCKAEDFT"> F  </i>
   <i name="HFSCREEN">      0.00000000</i>
   <i name="HFSCREENC">      0.00000000</i>
   <i type="int" name="NBANDSGWLOW">     0</i>
  </separator>
  <separator name="vdW DFT" >
   <i type="logical" name="LUSE_VDW"> F  </i>
   <i name="Zab_VDW">     -0.84910000</i>
   <i name="PARAM1">      0.12340000</i>
   <i name="PARAM2">      1.00000000</i>
   <i name="PARAM3">      0.00000000</i>
  </separator>
  <separator name="model GW" >
   <i type="int" name="MODEL_GW">     0</i>
   <i name="MODEL_EPS0">   2400.00000000</i>
   <i name="MODEL_ALPHA">      1.00000000</i>
  </separator>
  <separator name="linear response parameters" >
   <i type="logical" name="LEPSILON"> F  </i>
   <i type="logical" name="LRPA"> F  </i>
   <i type="logical" name="LNABLA"> F  </i>
   <i type="logical" name="LVEL"> F  </i>
   <i type="int" name="KINTER">     0</i>
   <i name="CSHIFT">      0.10000000</i>
   <i name="OMEGAMAX">     -1.00000000</i>
   <i name="DEG_THRESHOLD">      0.00200000</i>
  </separator>
  <separator name="orbital magnetization" >
   <i type="logical" name="NUCIND"> F  </i>
   <v name="MAGPOS">      0.00000000      0.00000000      0.00000000</v>
   <i type="logical" name="LNICSALL"> T  </i>
   <i type="logical" name="ORBITALMAG"> F  </i>
   <i type="logical" name="LMAGBLOCH"> F  </i>
   <i type="logical" name="LCHIMAG"> F  </i>
   <i type="logical" name="LGAUGE"> T  </i>
   <i type="int" name="MAGATOM">     0</i>
   <v name="MAGDIPOL">      0.00000000      0.00000000      0.00000000</v>
   <v name="AVECCONST">      0.00000000      0.00000000      0.00000000</v>
  </separator>
  <separator name="response functions" >
   <i type="logical" name="LADDER"> F  </i>
   <i type="logical" name="LFXC"> F  </i>
   <i type="logical" name="LHARTREE"> T  </i>
   <i type="int" name="IBSE">     0</i>
   <v type="int" name="KPOINT">    -1     0     0     0</v>
   <i type="logical" name="LTCTE"> F  </i>
   <i type="logical" name="LTETE"> F  </i>
   <i type="logical" name="LTRIPLET"> F  </i>
   <i type="logical" name="LFXCEPS"> F  </i>
   <i type="logical" name="LFXHEG"> F  </i>
   <i type="int" name="NATURALO">     0</i>
   <i type="logical" name="L2ORDER"> F  </i>
   <i type="logical" name="LUSEW"> F  </i>
   <i name="ENCUTGW">     -2.00000000</i>
   <i name="ENCUTGWSOFT">     -2.00000000</i>
   <i name="ENCUTLF">     -1.00000000</i>
   <i type="int" name="LMAXMP2">    -1</i>
   <i name="SCISSOR">      0.00000000</i>
   <i type="int" name="NOMEGA">     0</i>
   <i type="int" name="NOMEGAR">     0</i>
   <i type="int" name="NBANDSGW">    -1</i>
   <i type="int" name="NBANDSO">    -1</i>
   <i type="int" name="NBANDSV">    -1</i>
   <i type="int" name="NELM">     1</i>
   <i type="int" name="NELMHF">     1</i>
   <i type="int" name="DIM">     3</i>
   <i type="int" name="ANTIRES">     0</i>
   <i name="OMEGAMAX">    -30.00000000</i>
   <i name="OMEGAMIN">    -30.00000000</i>
   <i name="OMEGATL">   -200.00000000</i>
   <i type="int" name="OMEGAGRID">     0</i>
   <i name="CSHIFT">     -0.10000000</i>
   <i type="logical" name="SELFENERGY"> F  </i>
   <i type="logical" name="LSPECTRAL"> F  </i>
   <i type="logical" name="LSPECTRALGW"> F  </i>
   <i type="logical" name="LSINGLES"> F  </i>
   <i type="logical" name="LFERMIGW"> F  </i>
   <i type="logical" name="ODDONLYGW"> F  </i>
   <i type="logical" name="EVENONLYGW"> F  </i>
   <i type="int" name="NKREDLFX">     1</i>
   <i type="int" name="NKREDLFY">     1</i>
   <i type="int" name="NKREDLFZ">     1</i>
   <i type="int" name="MAXMEM">  1800</i>
   <i type="int" name="TELESCOPE">     0</i>
   <i type="int" name="TAUPAR">     1</i>
   <i type="int" name="OMEGAPAR">    -1</i>
   <i name="LAMBDA">      1.00000000</i>
  </separator>
  <separator name="External order field" >
   <i name="OFIELD_KAPPA">      0.00000000</i>
   <v name="OFIELD_K">      0.00000000      0.00000000      0.00000000</v>
   <i name="OFIELD_Q6_NEAR">      0.00000000</i>
   <i name="OFIELD_Q6_FAR">      0.00000000</i>
   <i name="OFIELD_A">      0.00000000</i>
  </separator>
 </parameters>
 <atominfo>
  <atoms>       2 </atoms>
  <types>       1 </types>
  <array name="atoms" >
   <dimension dim="1">ion</dimension>
   <field type="string">element</field>
   <field type="int">atomtype</field>
   <set>
    <rc><c>H </c><c>   1</c></rc>
    <rc><c>H </c><c>   1</c></rc>
   </set>
  </array>
  <array name="atomtypes" >
   <dimension dim="1">type</dimension>
   <field type="int">atomspertype</field>
   <field type="string">element</field>
   <field>mass</field>
   <field>valence</field>
   <field type="string">pseudopotential</field>
   <set>
    <rc><c>   2</c><c>H </c><c>      1.00000000</c><c>      1.00000000</c><c>  PAW_PBE H 15Jun2001                   </c></rc>
   </set>
  </array>
 </atominfo>
 <structure name="initialpos" >
  <crystal>
   <varray name="basis" >
    <v>      20.00000000       0.00000000       0.00000000 </v>
    <v>       0.00000000      20.00000000       0.00000000 </v>
    <v>       0.00000000       0.00000000      20.00000000 </v>
   </varray>
   <i name="volume">   8000.00000000 </i>
   <varray name="rec_basis" >
    <v>       0.05000000       0.00000000       0.00000000 </v>
    <v>       0.00000000       0.05000000       0.00000000 </v>
    <v>       0.00000000       0.00000000       0.05000000 </v>
   </varray>
  </crystal>
  <varray name="positions" >
   <v>       0.50000000       0.50000000       0.51877857 </v>
   <v>       0.50000000       0.50000000       0.48172143 </v>
  </varray>
 </structure>
 <calculation>
  <scstep>
   <time name="dav">    0.16    0.16</time>
   <time name="total">    0.69    0.77</time>
   <energy>
    <i name="alphaZ">      0.00121808 </i>
    <i name="ewald">     15.34558930 </i>
    <i name="hartreedc">    -24.63880902 </i>
    <i name="XCdc">      4.35571762 </i>
    <i name="pawpsdc">      4.26805487 </i>
    <i name="pawaedc">     -4.28581044 </i>
    <i name="eentropy">     -0.00000000 </i>
    <i name="bandstr">    -17.87036530 </i>
    <i name="atom">     24.95726533 </i>
    <i name="e_fr_energy">      2.13286044 </i>
    <i name="e_wo_entrp">      2.13286044 </i>
    <i name="e_0_energy">      2.13286044 </i>
   </energy>
  </scstep>
  <scstep>
   <time name="dav">    0.15    0.15</time>
   <time name="total">    0.15    0.17</time>
   <energy>
    <i name="e_fr_energy">     -7.31045862 </i>
    <i name="e_wo_entrp">     -7.31045862 </i>
    <i name="e_0_energy">     -7.31045862 </i>
   </energy>
  </scstep>
  <scstep>
   <time name="dav">    0.19    0.19</time>
   <time name="total">    0.19    0.20</time>
   <energy>
    <i name="e_fr_energy">     -7.45678635 </i>
    <i name="e_wo_entrp">     -7.45678635 </i>
    <i name="e_0_energy">     -7.45678635 </i>
   </energy>
  </scstep>
  <scstep>
   <time name="dav">    0.11    0.11</time>
   <time name="total">    0.58    0.58</time>
   <energy>
    <i name="e_fr_energy">     -7.45682363 </i>
    <i name="e_wo_entrp">     -7.45682363 </i>
    <i name="e_0_energy">     -7.45682363 </i>
   </energy>
  </scstep>
  <scstep>
   <time name="diag">    0.03    0.03</time>
   <time name="diis">    0.13    0.14</time>
   <time name="orth">    0.00    0.00</time>
   <time name="total">    0.66    0.67</time>
   <energy>
    <i name="e_fr_energy">     -7.00111264 </i>
    <i name="e_wo_entrp">     -7.00111264 </i>
    <i name="e_0_energy">     -7.00111264 </i>
   </energy>
  </scstep>
  <scstep>
   <time name="diag">    0.03    0.03</time>
   <time name="diis">    0.15    0.15</time>
   <time name="orth">    0.00    0.00</time>
   <time name="total">    0.69    0.71</time>
   <energy>
    <i name="e_fr_energy">     -6.75283921 </i>
    <i name="e_wo_entrp">     -6.75283921 </i>
    <i name="e_0_energy">     -6.75283921 </i>
   </energy>
  </scstep>
  <scstep>
   <time name="diag">    0.03    0.03</time>
   <time name="diis">    0.16    0.16</time>
   <time name="orth">    0.00    0.00</time>
   <time name="total">    0.71    0.75</time>
   <energy>
    <i name="e_fr_energy">     -6.75684123 </i>
    <i name="e_wo_entrp">     -6.75684123 </i>
    <i name="e_0_energy">     -6.75684123 </i>
   </energy>
  </scstep>
  <scstep>
   <time name="diag">    0.03    0.03</time>
   <time name="diis">    0.17    0.17</time>
   <time name="orth">    0.00    0.00</time>
   <time name="total">    0.73    0.74</time>
   <energy>
    <i name="e_fr_energy">     -6.75379560 </i>
    <i name="e_wo_entrp">     -6.75379560 </i>
    <i name="e_0_energy">     -6.75379560 </i>
   </energy>
  </scstep>
  <scstep>
   <time name="diag">    0.03    0.03</time>
   <time name="diis">    0.12    0.12</time>
   <time name="orth">    0.12    0.12</time>
   <time name="total">    0.81    0.81</time>
   <energy>
    <i name="e_fr_energy">     -6.75516982 </i>
    <i name="e_wo_entrp">     -6.75516982 </i>
    <i name="e_0_energy">     -6.75516982 </i>
   </energy>
  </scstep>
  <scstep>
   <time name="diag">    0.03    0.03</time>
   <time name="diis">    0.18    0.18</time>
   <time name="orth">    0.00    0.00</time>
   <time name="total">    0.70    0.70</time>
   <energy>
    <i name="e_fr_energy">     -6.75563621 </i>
    <i name="e_wo_entrp">     -6.75563621 </i>
    <i name="e_0_energy">     -6.75563621 </i>
   </energy>
  </scstep>
  <scstep>
   <time name="diag">    0.03    0.03</time>
   <time name="diis">    0.12    0.12</time>
   <time name="orth">    0.00    0.00</time>
   <time name="total">    0.71    0.71</time>
   <energy>
    <i name="e_fr_energy">     -6.75750196 </i>
    <i name="e_wo_entrp">     -6.75750196 </i>
    <i name="e_0_energy">     -6.75750196 </i>
   </energy>
  </scstep>
  <scstep>
   <time name="diag">    0.03    0.03</time>
   <time name="diis">    0.15    0.15</time>
   <time name="orth">    0.00    0.00</time>
   <time name="total">    0.74    0.75</time>
   <energy>
    <i name="e_fr_energy">     -6.75771602 </i>
    <i name="e_wo_entrp">     -6.75771602 </i>
    <i name="e_0_energy">     -6.75771602 </i>
   </energy>
  </scstep>
  <scstep>
   <time name="diag">    0.03    0.03</time>
   <time name="diis">    0.15    0.15</time>
   <time name="orth">    0.00    0.00</time>
   <time name="total">    0.67    0.67</time>
   <energy>
    <i name="e_fr_energy">     -6.75788943 </i>
    <i name="e_wo_entrp">     -6.75788943 </i>
    <i name="e_0_energy">     -6.75788943 </i>
   </energy>
  </scstep>
  <scstep>
   <time name="diag">    0.03    0.03</time>
   <time name="diis">    0.16    0.16</time>
   <time name="orth">    0.00    0.00</time>
   <time name="total">    0.72    0.72</time>
   <energy>
    <i name="e_fr_energy">     -6.75794345 </i>
    <i name="e_wo_entrp">     -6.75794345 </i>
    <i name="e_0_energy">     -6.75794345 </i>
   </energy>
  </scstep>
  <scstep>
   <time name="diag">    0.03    0.03</time>
   <time name="diis">    0.15    0.15</time>
   <time name="orth">    0.00    0.00</time>
   <time name="total">    0.67    0.67</time>
   <energy>
    <i name="e_fr_energy">     -6.75796533 </i>
    <i name="e_wo_entrp">     -6.75796533 </i>
    <i name="e_0_energy">     -6.75796533 </i>
   </energy>
  </scstep>
  <scstep>
   <time name="diag">    0.03    0.03</time>
   <time name="diis">    0.16    0.16</time>
   <time name="orth">    0.00    0.00</time>
   <time name="total">    0.68    0.74</time>
   <energy>
    <i name="e_fr_energy">     -6.75797907 </i>
    <i name="e_wo_entrp">     -6.75797907 </i>
    <i name="e_0_energy">     -6.75797907 </i>
   </energy>
  </scstep>
  <scstep>
   <time name="diag">    0.03    0.03</time>
   <time name="diis">    0.19    0.19</time>
   <time name="orth">    0.00    0.00</time>
   <time name="total">    0.80    0.81</time>
   <energy>
    <i name="e_fr_energy">     -6.75798244 </i>
    <i name="e_wo_entrp">     -6.75798244 </i>
    <i name="e_0_energy">     -6.75798244 </i>
   </energy>
  </scstep>
  <scstep>
   <time name="diag">    0.03    0.03</time>
   <time name="diis">    0.14    0.14</time>
   <time name="orth">    0.00    0.00</time>
   <time name="total">    0.67    0.67</time>
   <energy>
    <i name="e_fr_energy">     -6.75798472 </i>
    <i name="e_wo_entrp">     -6.75798472 </i>
    <i name="e_0_energy">     -6.75798472 </i>
   </energy>
  </scstep>
  <scstep>
   <time name="diag">    0.03    0.07</time>
   <time name="diis">    0.18    0.19</time>
   <time name="orth">    0.00    0.00</time>
   <time name="total">    0.58    0.65</time>
   <energy>
    <i name="alphaZ">      0.00121808 </i>
    <i name="ewald">     15.34558930 </i>
    <i name="hartreedc">    -31.58652466 </i>
    <i name="XCdc">      5.32069121 </i>
    <i name="pawpsdc">     25.24142095 </i>
    <i name="pawaedc">    -25.29146735 </i>
    <i name="eentropy">     -0.00000000 </i>
    <i name="bandstr">    -20.74617771 </i>
    <i name="atom">     24.95726533 </i>
    <i name="e_fr_energy">     -6.75798486 </i>
    <i name="e_wo_entrp">     -6.75798486 </i>
    <i name="e_0_energy">     -6.75798486 </i>
   </energy>
  </scstep>
  <structure>
   <crystal>
    <varray name="basis" >
     <v>      20.00000000       0.00000000       0.00000000 </v>
     <v>       0.00000000      20.00000000       0.00000000 </v>
     <v>       0.00000000       0.00000000      20.00000000 </v>
    </varray>
    <i name="volume">   8000.00000000 </i>
    <varray name="rec_basis" >
     <v>       0.05000000       0.00000000       0.00000000 </v>
     <v>       0.00000000       0.05000000       0.00000000 </v>
     <v>       0.00000000       0.00000000       0.05000000 </v>
    </varray>
   </crystal>
   <varray name="positions" >
    <v>       0.50000000       0.50000000       0.51877857 </v>
    <v>       0.50000000       0.50000000       0.48172143 </v>
   </varray>
  </structure>
  <varray name="forces" >
   <v>       0.00000000       0.00000000       0.34289661 </v>
   <v>      -0.00000000       0.00000000      -0.34289661 </v>
  </varray>
  <varray name="stress" >
   <v>      -0.02411394       0.00000000       0.00000000 </v>
   <v>       0.00000000      -0.02411394       0.00000000 </v>
   <v>       0.00000000       0.00000000       0.02021066 </v>
  </varray>
  <energy>
   <i name="e_fr_energy">     -6.75798486 </i>
   <i name="e_wo_entrp">     -6.75798486 </i>
   <i name="e_0_energy">     -0.00000000 </i>
  </energy>
  <time name="totalsc">   12.97   13.30</time>
  <eigenvalues>
   <array>
    <dimension dim="1">band</dimension>
    <dimension dim="2">kpoint</dimension>
    <dimension dim="3">spin</dimension>
    <field>eigene</field>
    <field>occ</field>
    <set>
     <set comment="spin 1">
      <set comment="kpoint 1">
       <r>  -10.3731    1.0000 </r>
       <r>   -0.0548    0.0000 </r>
       <r>    0.1746    0.0000 </r>
       <r>    0.2530    0.0000 </r>
       <r>    0.3173    0.0000 </r>
      </set>
     </set>
    </set>
   </array>
  </eigenvalues>
  <separator name="orbital magnetization" >
   <v name="MAGDIPOLOUT">      0.00000000      0.00000000      0.00000000</v>
  </separator>
  <dos>
   <i name="efermi">     -7.98897264 </i>
   <total>
    <array>
     <dimension dim="1">gridpoints</dimension>
     <dimension dim="2">spin</dimension>
     <field>energy</field>
     <field>total</field>
     <field>integrated</field>
     <set>
      <set comment="spin 1">
       <r>   -11.3731     0.0000     0.0000 </r>
       <r>   -11.3308     0.0000     0.0000 </r>
       <r>   -11.2885     0.0000     0.0000 </r>
       <r>   -11.2462     0.0000     0.0000 </r>
       <r>   -11.2039     0.0117     0.0005 </r>
       <r>   -11.1616     0.0061     0.0008 </r>
       <r>   -11.1193     0.0094     0.0011 </r>
       <r>   -11.0770     0.0143     0.0018 </r>
       <r>   -11.0347     0.0218     0.0027 </r>
       <r>   -10.9924     0.0332     0.0041 </r>
       <r>   -10.9501     0.0506     0.0062 </r>
       <r>   -10.9078     0.0771     0.0095 </r>
       <r>   -10.8655     0.1172     0.0144 </r>
       <r>   -10.8232     0.1777     0.0220 </r>
       <r>   -10.7809     0.2688     0.0333 </r>
       <r>   -10.7386     0.4044     0.0504 </r>
       <r>   -10.6963     0.6039     0.0760 </r>
       <r>   -10.6540     0.8920     0.1137 </r>
       <r>   -10.6117     1.2961     0.1685 </r>
       <r>   -10.5694     1.8395     0.2463 </r>
       <r>   -10.5271     2.5250     0.3532 </r>
       <r>   -10.4848     3.3118     0.4932 </r>
       <r>   -10.4425     4.0939     0.6664 </r>
       <r>   -10.4002     4.7057     0.8655 </r>
       <r>   -10.3579     4.9771     1.0760 </r>
       <r>   -10.3156     4.8219     1.2800 </r>
       <r>   -10.2733     4.2901     1.4615 </r>
       <r>   -10.2309     3.5373     1.6111 </r>
       <r>   -10.1886     2.7381     1.7269 </r>
       <r>   -10.1463     2.0176     1.8123 </r>
       <r>   -10.1040     1.4334     1.8729 </r>
       <r>   -10.0617     0.9921     1.9149 </r>
       <r>   -10.0194     0.6744     1.9434 </r>
       <r>    -9.9771     0.4528     1.9626 </r>
       <r>    -9.9348     0.3015     1.9753 </r>
       <r>    -9.8925     0.1996     1.9838 </r>
       <r>    -9.8502     0.1317     1.9893 </r>
       <r>    -9.8079     0.0867     1.9930 </r>
       <r>    -9.7656     0.0569     1.9954 </r>
       <r>    -9.7233     0.0374     1.9970 </r>
       <r>    -9.6810     0.0245     1.9980 </r>
       <r>    -9.6387     0.0161     1.9987 </r>
       <r>    -9.5964     0.0105     1.9992 </r>
       <r>    -9.5541     0.0000     2.0000 </r>
       <r>    -9.5118     0.0000     2.0000 </r>
       <r>    -9.4695     0.0000     2.0000 </r>
       <r>    -9.4272     0.0000     2.0000 </r>
       <r>    -9.3849     0.0000     2.0000 </r>
       <r>    -9.3426     0.0000     2.0000 </r>
       <r>    -9.3003     0.0000     2.0000 </r>
       <r>    -9.2580     0.0000     2.0000 </r>
       <r>    -9.2157     0.0000     2.0000 </r>
       <r>    -9.1734     0.0000     2.0000 </r>
       <r>    -9.1311     0.0000     2.0000 </r>
       <r>    -9.0888     0.0000     2.0000 </r>
       <r>    -9.0465     0.0000     2.0000 </r>
       <r>    -9.0042     0.0000     2.0000 </r>
       <r>    -8.9619     0.0000     2.0000 </r>
       <r>    -8.9196     0.0000     2.0000 </r>
       <r>    -8.8773     0.0000     2.0000 </r>
       <r>    -8.8350     0.0000     2.0000 </r>
       <r>    -8.7927     0.0000     2.0000 </r>
       <r>    -8.7504     0.0000     2.0000 </r>
       <r>    -8.7081     0.0000     2.0000 </r>
       <r>    -8.6658     0.0000     2.0000 </r>
       <r>    -8.6235     0.0000     2.0000 </r>
       <r>    -8.5812     0.0000     2.0000 </r>
       <r>    -8.5389     0.0000     2.0000 </r>
       <r>    -8.4966     0.0000     2.0000 </r>
       <r>    -8.4543     0.0000     2.0000 </r>
       <r>    -8.4120     0.0000     2.0000 </r>
       <r>    -8.3697     0.0000     2.0000 </r>
       <r>    -8.3274     0.0000     2.0000 </r>
       <r>    -8.2851     0.0000     2.0000 </r>
       <r>    -8.2428     0.0000     2.0000 </r>
       <r>    -8.2005     0.0000     2.0000 </r>
       <r>    -8.1582     0.0000     2.0000 </r>
       <r>    -8.1159     0.0000     2.0000 </r>
       <r>    -8.0736     0.0000     2.0000 </r>
       <r>    -8.0313     0.0000     2.0000 </r>
       <r>    -7.9890     0.0000     2.0000 </r>
       <r>    -7.9467     0.0000     2.0000 </r>
       <r>    -7.9044     0.0000     2.0000 </r>
       <r>    -7.8621     0.0000     2.0000 </r>
       <r>    -7.8198     0.0000     2.0000 </r>
       <r>    -7.7775     0.0000     2.0000 </r>
       <r>    -7.7352     0.0000     2.0000 </r>
       <r>    -7.6929     0.0000     2.0000 </r>
       <r>    -7.6506     0.0000     2.0000 </r>
       <r>    -7.6083     0.0000     2.0000 </r>
       <r>    -7.5660     0.0000     2.0000 </r>
       <r>    -7.5237     0.0000     2.0000 </r>
       <r>    -7.4814     0.0000     2.0000 </r>
       <r>    -7.4391     0.0000     2.0000 </r>
       <r>    -7.3968     0.0000     2.0000 </r>
       <r>    -7.3545     0.0000     2.0000 </r>
       <r>    -7.3121     0.0000     2.0000 </r>
       <r>    -7.2698     0.0000     2.0000 </r>
       <r>    -7.2275     0.0000     2.0000 </r>
       <r>    -7.1852     0.0000     2.0000 </r>
       <r>    -7.1429     0.0000     2.0000 </r>
       <r>    -7.1006     0.0000     2.0000 </r>
       <r>    -7.0583     0.0000     2.0000 </r>
       <r>    -7.0160     0.0000     2.0000 </r>
       <r>    -6.9737     0.0000     2.0000 </r>
       <r>    -6.9314     0.0000     2.0000 </r>
       <r>    -6.8891     0.0000     2.0000 </r>
       <r>    -6.8468     0.0000     2.0000 </r>
       <r>    -6.8045     0.0000     2.0000 </r>
       <r>    -6.7622     0.0000     2.0000 </r>
       <r>    -6.7199     0.0000     2.0000 </r>
       <r>    -6.6776     0.0000     2.0000 </r>
       <r>    -6.6353     0.0000     2.0000 </r>
       <r>    -6.5930     0.0000     2.0000 </r>
       <r>    -6.5507     0.0000     2.0000 </r>
       <r>    -6.5084     0.0000     2.0000 </r>
       <r>    -6.4661     0.0000     2.0000 </r>
       <r>    -6.4238     0.0000     2.0000 </r>
       <r>    -6.3815     0.0000     2.0000 </r>
       <r>    -6.3392     0.0000     2.0000 </r>
       <r>    -6.2969     0.0000     2.0000 </r>
       <r>    -6.2546     0.0000     2.0000 </r>
       <r>    -6.2123     0.0000     2.0000 </r>
       <r>    -6.1700     0.0000     2.0000 </r>
       <r>    -6.1277     0.0000     2.0000 </r>
       <r>    -6.0854     0.0000     2.0000 </r>
       <r>    -6.0431     0.0000     2.0000 </r>
       <r>    -6.0008     0.0000     2.0000 </r>
       <r>    -5.9585     0.0000     2.0000 </r>
       <r>    -5.9162     0.0000     2.0000 </r>
       <r>    -5.8739     0.0000     2.0000 </r>
       <r>    -5.8316     0.0000     2.0000 </r>
       <r>    -5.7893     0.0000     2.0000 </r>
       <r>    -5.7470     0.0000     2.0000 </r>
       <r>    -5.7047     0.0000     2.0000 </r>
       <r>    -5.6624     0.0000     2.0000 </r>
       <r>    -5.6201     0.0000     2.0000 </r>
       <r>    -5.5778     0.0000     2.0000 </r>
       <r>    -5.5355     0.0000     2.0000 </r>
       <r>    -5.4932     0.0000     2.0000 </r>
       <r>    -5.4509     0.0000     2.0000 </r>
       <r>    -5.4086     0.0000     2.0000 </r>
       <r>    -5.3663     0.0000     2.0000 </r>
       <r>    -5.3240     0.0000     2.0000 </r>
       <r>    -5.2817     0.0000     2.0000 </r>
       <r>    -5.2394     0.0000     2.0000 </r>
       <r>    -5.1971     0.0000     2.0000 </r>
       <r>    -5.1548     0.0000     2.0000 </r>
       <r>    -5.1125     0.0000     2.0000 </r>
       <r>    -5.0702     0.0000     2.0000 </r>
       <r>    -5.0279     0.0000     2.0000 </r>
       <r>    -4.9856     0.0000     2.0000 </r>
       <r>    -4.9433     0.0000     2.0000 </r>
       <r>    -4.9010     0.0000     2.0000 </r>
       <r>    -4.8587     0.0000     2.0000 </r>
       <r>    -4.8164     0.0000     2.0000 </r>
       <r>    -4.7741     0.0000     2.0000 </r>
       <r>    -4.7318     0.0000     2.0000 </r>
       <r>    -4.6895     0.0000     2.0000 </r>
       <r>    -4.6472     0.0000     2.0000 </r>
       <r>    -4.6049     0.0000     2.0000 </r>
       <r>    -4.5626     0.0000     2.0000 </r>
       <r>    -4.5203     0.0000     2.0000 </r>
       <r>    -4.4780     0.0000     2.0000 </r>
       <r>    -4.4357     0.0000     2.0000 </r>
       <r>    -4.3933     0.0000     2.0000 </r>
       <r>    -4.3510     0.0000     2.0000 </r>
       <r>    -4.3087     0.0000     2.0000 </r>
       <r>    -4.2664     0.0000     2.0000 </r>
       <r>    -4.2241     0.0000     2.0000 </r>
       <r>    -4.1818     0.0000     2.0000 </r>
       <r>    -4.1395     0.0000     2.0000 </r>
       <r>    -4.0972     0.0000     2.0000 </r>
       <r>    -4.0549     0.0000     2.0000 </r>
       <r>    -4.0126     0.0000     2.0000 </r>
       <r>    -3.9703     0.0000     2.0000 </r>
       <r>    -3.9280     0.0000     2.0000 </r>
       <r>    -3.8857     0.0000     2.0000 </r>
       <r>    -3.8434     0.0000     2.0000 </r>
       <r>    -3.8011     0.0000     2.0000 </r>
       <r>    -3.7588     0.0000     2.0000 </r>
       <r>    -3.7165     0.0000     2.0000 </r>
       <r>    -3.6742     0.0000     2.0000 </r>
       <r>    -3.6319     0.0000     2.0000 </r>
       <r>    -3.5896     0.0000     2.0000 </r>
       <r>    -3.5473     0.0000     2.0000 </r>
       <r>    -3.5050     0.0000     2.0000 </r>
       <r>    -3.4627     0.0000     2.0000 </r>
       <r>    -3.4204     0.0000     2.0000 </r>
       <r>    -3.3781     0.0000     2.0000 </r>
       <r>    -3.3358     0.0000     2.0000 </r>
       <r>    -3.2935     0.0000     2.0000 </r>
       <r>    -3.2512     0.0000     2.0000 </r>
       <r>    -3.2089     0.0000     2.0000 </r>
       <r>    -3.1666     0.0000     2.0000 </r>
       <r>    -3.1243     0.0000     2.0000 </r>
       <r>    -3.0820     0.0000     2.0000 </r>
       <r>    -3.0397     0.0000     2.0000 </r>
       <r>    -2.9974     0.0000     2.0000 </r>
       <r>    -2.9551     0.0000     2.0000 </r>
       <r>    -2.9128     0.0000     2.0000 </r>
       <r>    -2.8705     0.0000     2.0000 </r>
       <r>    -2.8282     0.0000     2.0000 </r>
       <r>    -2.7859     0.0000     2.0000 </r>
       <r>    -2.7436     0.0000     2.0000 </r>
       <r>    -2.7013     0.0000     2.0000 </r>
       <r>    -2.6590     0.0000     2.0000 </r>
       <r>    -2.6167     0.0000     2.0000 </r>
       <r>    -2.5744     0.0000     2.0000 </r>
       <r>    -2.5321     0.0000     2.0000 </r>
       <r>    -2.4898     0.0000     2.0000 </r>
       <r>    -2.4475     0.0000     2.0000 </r>
       <r>    -2.4052     0.0000     2.0000 </r>
       <r>    -2.3629     0.0000     2.0000 </r>
       <r>    -2.3206     0.0000     2.0000 </r>
       <r>    -2.2783     0.0000     2.0000 </r>
       <r>    -2.2360     0.0000     2.0000 </r>
       <r>    -2.1937     0.0000     2.0000 </r>
       <r>    -2.1514     0.0000     2.0000 </r>
       <r>    -2.1091     0.0000     2.0000 </r>
       <r>    -2.0668     0.0000     2.0000 </r>
       <r>    -2.0245     0.0000     2.0000 </r>
       <r>    -1.9822     0.0000     2.0000 </r>
       <r>    -1.9399     0.0000     2.0000 </r>
       <r>    -1.8976     0.0000     2.0000 </r>
       <r>    -1.8553     0.0000     2.0000 </r>
       <r>    -1.8130     0.0000     2.0000 </r>
       <r>    -1.7707     0.0000     2.0000 </r>
       <r>    -1.7284     0.0000     2.0000 </r>
       <r>    -1.6861     0.0000     2.0000 </r>
       <r>    -1.6438     0.0000     2.0000 </r>
       <r>    -1.6015     0.0000     2.0000 </r>
       <r>    -1.5592     0.0000     2.0000 </r>
       <r>    -1.5169     0.0000     2.0000 </r>
       <r>    -1.4745     0.0000     2.0000 </r>
       <r>    -1.4322     0.0000     2.0000 </r>
       <r>    -1.3899     0.0000     2.0000 </r>
       <r>    -1.3476     0.0000     2.0000 </r>
       <r>    -1.3053     0.0000     2.0000 </r>
       <r>    -1.2630     0.0000     2.0000 </r>
       <r>    -1.2207     0.0000     2.0000 </r>
       <r>    -1.1784     0.0000     2.0000 </r>
       <r>    -1.1361     0.0000     2.0000 </r>
       <r>    -1.0938     0.0000     2.0000 </r>
       <r>    -1.0515     0.0000     2.0000 </r>
       <r>    -1.0092     0.0000     2.0000 </r>
       <r>    -0.9669     0.0000     2.0000 </r>
       <r>    -0.9246     0.0000     2.0000 </r>
       <r>    -0.8823     0.0120     2.0005 </r>
       <r>    -0.8400     0.0063     2.0008 </r>
       <r>    -0.7977     0.0097     2.0012 </r>
       <r>    -0.7554     0.0148     2.0018 </r>
       <r>    -0.7131     0.0225     2.0028 </r>
       <r>    -0.6708     0.0343     2.0042 </r>
       <r>    -0.6285     0.0676     2.0071 </r>
       <r>    -0.5862     0.0984     2.0112 </r>
       <r>    -0.5439     0.1390     2.0171 </r>
       <r>    -0.5016     0.2240     2.0266 </r>
       <r>    -0.4593     0.3261     2.0404 </r>
       <r>    -0.4170     0.4914     2.0612 </r>
       <r>    -0.3747     0.7357     2.0923 </r>
       <r>    -0.3324     1.0909     2.1384 </r>
       <r>    -0.2901     1.5947     2.2059 </r>
       <r>    -0.2478     2.2848     2.3025 </r>
       <r>    -0.2055     3.1840     2.4372 </r>
       <r>    -0.1632     4.2790     2.6182 </r>
       <r>    -0.1209     5.5022     2.8510 </r>
       <r>    -0.0786     6.7411     3.1362 </r>
       <r>    -0.0363     7.8944     3.4701 </r>
       <r>     0.0060     8.9455     3.8485 </r>
       <r>     0.0483     9.9830     4.2708 </r>
       <r>     0.0906    11.1210     4.7412 </r>
       <r>     0.1329    12.3728     5.2646 </r>
       <r>     0.1752    13.5819     5.8392 </r>
       <r>     0.2175    14.4623     6.4509 </r>
       <r>     0.2598    14.7188     7.0736 </r>
       <r>     0.3021    14.1741     7.6731 </r>
       <r>     0.3444    12.8462     8.2166 </r>
       <r>     0.3867    10.9468     8.6796 </r>
       <r>     0.4290     8.8000     9.0519 </r>
       <r>     0.4713     6.7198     9.3361 </r>
       <r>     0.5136     4.9188     9.5442 </r>
       <r>     0.5559     3.4840     9.6916 </r>
       <r>     0.5982     2.4086     9.7935 </r>
       <r>     0.6405     1.6365     9.8627 </r>
       <r>     0.6828     1.0986     9.9092 </r>
       <r>     0.7251     0.7315     9.9401 </r>
       <r>     0.7674     0.4777     9.9611 </r>
       <r>     0.8097     0.3152     9.9745 </r>
       <r>     0.8520     0.2074     9.9832 </r>
       <r>     0.8943     0.1363     9.9890 </r>
       <r>     0.9366     0.0895     9.9928 </r>
       <r>     0.9789     0.0507     9.9959 </r>
       <r>     1.0212     0.0332     9.9973 </r>
       <r>     1.0635     0.0143     9.9989 </r>
       <r>     1.1058     0.0094     9.9992 </r>
       <r>     1.1481     0.0000    10.0000 </r>
       <r>     1.1904     0.0000    10.0000 </r>
       <r>     1.2327     0.0000    10.0000 </r>
       <r>     1.2750     0.0000    10.0000 </r>
       <r>     1.3173     0.0000    10.0000 </r>
      </set>
     </set>
    </array>
   </total>
  </dos>
 </calculation>
 <structure name="finalpos" >
  <crystal>
   <varray name="basis" >
    <v>      20.00000000       0.00000000       0.00000000 </v>
    <v>       0.00000000      20.00000000       0.00000000 </v>
    <v>       0.00000000       0.00000000      20.00000000 </v>
   </varray>
   <i name="volume">   8000.00000000 </i>
   <varray name="rec_basis" >
    <v>       0.05000000       0.00000000       0.00000000 </v>
    <v>       0.00000000       0.05000000       0.00000000 </v>
    <v>       0.00000000       0.00000000       0.05000000 </v>
   </varray>
  </crystal>
  <varray name="positions" >
   <v>       0.50000000       0.50000000       0.51877857 </v>
   <v>       0.50000000       0.50000000       0.48172143 </v>
  </varray>
 </structure>
</modeling>
