unknown system                          
           1
     8.421642    0.000000    0.000000
     4.210821    7.293356    0.000000
     0.000000    0.000000   21.876242
   Pt   H 
  36   1
Direct configuration=     1
   0.00000000  0.00000000  0.34283768
   0.33333333  0.00000000  0.34283768
   0.66666667  0.00000000  0.34283768
   0.00000000  0.33333333  0.34283768
   0.33333333  0.33333333  0.34283768
   0.66666667  0.33333333  0.34283768
   0.00000000  0.66666667  0.34283768
   0.33333333  0.66666667  0.34283768
   0.66666667  0.66666667  0.34283768
   0.11111111  0.11111111  0.44761256
   0.44444444  0.11111111  0.44761256
   0.77777778  0.11111111  0.44761256
   0.11111111  0.44444444  0.44761256
   0.44444444  0.44444444  0.44761256
   0.77777778  0.44444444  0.44761256
   0.11111111  0.77777778  0.44761256
   0.44444444  0.77777778  0.44761256
   0.77777778  0.77777778  0.44761256
   0.88957354  0.22192121  0.55197483
   0.22184745  0.22192564  0.55197916
   0.55560047  0.22212426  0.55111662
   0.88914713  0.55502084  0.55143657
   0.22210731  0.55559497  0.55112482
   0.55561817  0.55558382  0.55112383
   0.88919420  0.88927977  0.55143468
   0.22192341  0.88947715  0.55193498
   0.55485472  0.88929381  0.55143324
   0.99703119  0.99714358  0.65829919
   0.33917174  0.99714233  0.65829595
   0.66651762  0.00030216  0.65642122
   0.99687936  0.33957639  0.65829844
   0.33452513  0.33464418  0.65639893
   0.66416332  0.33464339  0.65640240
   0.00013747  0.66678413  0.65642089
   0.33449317  0.66434345  0.65639776
   0.66640679  0.66677830  0.65642263
   0.11057118  0.11203250  0.69700663
