  40  40   0   0
  0.3359208E+02  0.8421642E-09  0.8421642E-09  0.2187624E-08  0.5000000E-15
  1.000000000000000E-004
  CAR 
 unknown system                          
      8.50787299    -14.87894008  301      1.47597054      1.00000000
    -14.879  0.0000E+00  0.0000E+00
    -14.801  0.0000E+00  0.0000E+00
    -14.723  0.0000E+00  0.0000E+00
    -14.645  0.6350E-02  0.4950E-03
    -14.567  0.7492E-02  0.1079E-02
    -14.489  0.1632E-01  0.2351E-02
    -14.411  0.3552E-01  0.5120E-02
    -14.333  0.7711E-01  0.1113E-01
    -14.255  0.1665E+00  0.2411E-01
    -14.177  0.3557E+00  0.5184E-01
    -14.099  0.7420E+00  0.1097E+00
    -14.021  0.1474E+01  0.2246E+00
    -13.943  0.2666E+01  0.4325E+00
    -13.866  0.4089E+01  0.7512E+00
    -13.788  0.4921E+01  0.1135E+01
    -13.710  0.4452E+01  0.1482E+01
    -13.632  0.3101E+01  0.1724E+01
    -13.554  0.1788E+01  0.1863E+01
    -13.476  0.9204E+00  0.1935E+01
    -13.398  0.4462E+00  0.1970E+01
    -13.320  0.2101E+00  0.1986E+01
    -13.242  0.9750E-01  0.1994E+01
    -13.164  0.4497E-01  0.1997E+01
    -13.086  0.2067E-01  0.1999E+01
    -13.008  0.0000E+00  0.2000E+01
    -12.930  0.0000E+00  0.2000E+01
    -12.852  0.0000E+00  0.2000E+01
    -12.774  0.0000E+00  0.2000E+01
    -12.696  0.0000E+00  0.2000E+01
    -12.618  0.0000E+00  0.2000E+01
    -12.540  0.0000E+00  0.2000E+01
    -12.462  0.0000E+00  0.2000E+01
    -12.384  0.0000E+00  0.2000E+01
    -12.306  0.0000E+00  0.2000E+01
    -12.228  0.0000E+00  0.2000E+01
    -12.150  0.0000E+00  0.2000E+01
    -12.073  0.0000E+00  0.2000E+01
    -11.995  0.0000E+00  0.2000E+01
    -11.917  0.0000E+00  0.2000E+01
    -11.839  0.0000E+00  0.2000E+01
    -11.761  0.0000E+00  0.2000E+01
    -11.683  0.0000E+00  0.2000E+01
    -11.605  0.0000E+00  0.2000E+01
    -11.527  0.0000E+00  0.2000E+01
    -11.449  0.0000E+00  0.2000E+01
    -11.371  0.0000E+00  0.2000E+01
    -11.293  0.0000E+00  0.2000E+01
    -11.215  0.0000E+00  0.2000E+01
    -11.137  0.0000E+00  0.2000E+01
    -11.059  0.0000E+00  0.2000E+01
    -10.981  0.0000E+00  0.2000E+01
    -10.903  0.0000E+00  0.2000E+01
    -10.825  0.0000E+00  0.2000E+01
    -10.747  0.0000E+00  0.2000E+01
    -10.669  0.0000E+00  0.2000E+01
    -10.591  0.0000E+00  0.2000E+01
    -10.513  0.0000E+00  0.2000E+01
    -10.435  0.0000E+00  0.2000E+01
    -10.357  0.0000E+00  0.2000E+01
    -10.280  0.0000E+00  0.2000E+01
    -10.202  0.0000E+00  0.2000E+01
    -10.124  0.0000E+00  0.2000E+01
    -10.046  0.0000E+00  0.2000E+01
     -9.968  0.0000E+00  0.2000E+01
     -9.890  0.0000E+00  0.2000E+01
     -9.812  0.0000E+00  0.2000E+01
     -9.734  0.0000E+00  0.2000E+01
     -9.656  0.0000E+00  0.2000E+01
     -9.578  0.0000E+00  0.2000E+01
     -9.500  0.0000E+00  0.2000E+01
     -9.422  0.6356E-02  0.2000E+01
     -9.344  0.7500E-02  0.2001E+01
     -9.266  0.1634E-01  0.2002E+01
     -9.188  0.3555E-01  0.2005E+01
     -9.110  0.7718E-01  0.2011E+01
     -9.032  0.1667E+00  0.2024E+01
     -8.954  0.3560E+00  0.2052E+01
     -8.876  0.7426E+00  0.2110E+01
     -8.798  0.1475E+01  0.2225E+01
     -8.720  0.2667E+01  0.2433E+01
     -8.642  0.4089E+01  0.2751E+01
     -8.565  0.4920E+01  0.3135E+01
     -8.487  0.4452E+01  0.3482E+01
     -8.409  0.3104E+01  0.3724E+01
     -8.331  0.1795E+01  0.3864E+01
     -8.253  0.9339E+00  0.3937E+01
     -8.175  0.4755E+00  0.3974E+01
     -8.097  0.2725E+00  0.3995E+01
     -8.019  0.2281E+00  0.4013E+01
     -7.941  0.3081E+00  0.4037E+01
     -7.863  0.5136E+00  0.4077E+01
     -7.785  0.8239E+00  0.4142E+01
     -7.707  0.1200E+01  0.4236E+01
     -7.629  0.1530E+01  0.4355E+01
     -7.551  0.1754E+01  0.4492E+01
     -7.473  0.1878E+01  0.4638E+01
     -7.395  0.1963E+01  0.4791E+01
     -7.317  0.2068E+01  0.4953E+01
     -7.239  0.2165E+01  0.5121E+01
     -7.161  0.2213E+01  0.5294E+01
     -7.083  0.2287E+01  0.5472E+01
     -7.005  0.2509E+01  0.5668E+01
     -6.927  0.2995E+01  0.5901E+01
     -6.849  0.3817E+01  0.6199E+01
     -6.772  0.4935E+01  0.6584E+01
     -6.694  0.6104E+01  0.7060E+01
     -6.616  0.6797E+01  0.7590E+01
     -6.538  0.6655E+01  0.8108E+01
     -6.460  0.6008E+01  0.8577E+01
     -6.382  0.5500E+01  0.9006E+01
     -6.304  0.5349E+01  0.9423E+01
     -6.226  0.5324E+01  0.9838E+01
     -6.148  0.5240E+01  0.1025E+02
     -6.070  0.5168E+01  0.1065E+02
     -5.992  0.5198E+01  0.1105E+02
     -5.914  0.5322E+01  0.1147E+02
     -5.836  0.5585E+01  0.1191E+02
     -5.758  0.6022E+01  0.1238E+02
     -5.680  0.6517E+01  0.1288E+02
     -5.602  0.6993E+01  0.1343E+02
     -5.524  0.7573E+01  0.1402E+02
     -5.446  0.8487E+01  0.1468E+02
     -5.368  0.9952E+01  0.1546E+02
     -5.290  0.1211E+02  0.1640E+02
     -5.212  0.1481E+02  0.1756E+02
     -5.134  0.1764E+02  0.1893E+02
     -5.056  0.2035E+02  0.2052E+02
     -4.979  0.2302E+02  0.2231E+02
     -4.901  0.2565E+02  0.2431E+02
     -4.823  0.2809E+02  0.2650E+02
     -4.745  0.3007E+02  0.2885E+02
     -4.667  0.3149E+02  0.3130E+02
     -4.589  0.3273E+02  0.3385E+02
     -4.511  0.3454E+02  0.3655E+02
     -4.433  0.3745E+02  0.3947E+02
     -4.355  0.4112E+02  0.4267E+02
     -4.277  0.4475E+02  0.4616E+02
     -4.199  0.4777E+02  0.4989E+02
     -4.121  0.4984E+02  0.5377E+02
     -4.043  0.5074E+02  0.5773E+02
     -3.965  0.5050E+02  0.6167E+02
     -3.887  0.4945E+02  0.6552E+02
     -3.809  0.4800E+02  0.6927E+02
     -3.731  0.4618E+02  0.7287E+02
     -3.653  0.4392E+02  0.7629E+02
     -3.575  0.4153E+02  0.7953E+02
     -3.497  0.3968E+02  0.8263E+02
     -3.419  0.3899E+02  0.8567E+02
     -3.341  0.3979E+02  0.8877E+02
     -3.263  0.4178E+02  0.9203E+02
     -3.186  0.4404E+02  0.9547E+02
     -3.108  0.4575E+02  0.9904E+02
     -3.030  0.4675E+02  0.1027E+03
     -2.952  0.4744E+02  0.1064E+03
     -2.874  0.4828E+02  0.1101E+03
     -2.796  0.4912E+02  0.1140E+03
     -2.718  0.4943E+02  0.1178E+03
     -2.640  0.4889E+02  0.1216E+03
     -2.562  0.4783E+02  0.1254E+03
     -2.484  0.4733E+02  0.1291E+03
     -2.406  0.4859E+02  0.1329E+03
     -2.328  0.5160E+02  0.1369E+03
     -2.250  0.5544E+02  0.1412E+03
     -2.172  0.5943E+02  0.1458E+03
     -2.094  0.6304E+02  0.1508E+03
     -2.016  0.6573E+02  0.1559E+03
     -1.938  0.6775E+02  0.1612E+03
     -1.860  0.7001E+02  0.1666E+03
     -1.782  0.7274E+02  0.1723E+03
     -1.704  0.7524E+02  0.1782E+03
     -1.626  0.7697E+02  0.1842E+03
     -1.548  0.7794E+02  0.1902E+03
     -1.471  0.7823E+02  0.1963E+03
     -1.393  0.7763E+02  0.2024E+03
     -1.315  0.7533E+02  0.2083E+03
     -1.237  0.7077E+02  0.2138E+03
     -1.159  0.6464E+02  0.2188E+03
     -1.081  0.5843E+02  0.2234E+03
     -1.003  0.5324E+02  0.2275E+03
     -0.925  0.4966E+02  0.2314E+03
     -0.847  0.4841E+02  0.2352E+03
     -0.769  0.5003E+02  0.2391E+03
     -0.691  0.5385E+02  0.2433E+03
     -0.613  0.5781E+02  0.2478E+03
     -0.535  0.5963E+02  0.2525E+03
     -0.457  0.5845E+02  0.2570E+03
     -0.379  0.5544E+02  0.2614E+03
     -0.301  0.5259E+02  0.2655E+03
     -0.223  0.5105E+02  0.2694E+03
     -0.145  0.5095E+02  0.2734E+03
     -0.067  0.5203E+02  0.2775E+03
      0.011  0.5393E+02  0.2817E+03
      0.089  0.5632E+02  0.2861E+03
      0.167  0.5891E+02  0.2907E+03
      0.245  0.6121E+02  0.2954E+03
      0.322  0.6256E+02  0.3003E+03
      0.400  0.6225E+02  0.3052E+03
      0.478  0.6012E+02  0.3099E+03
      0.556  0.5698E+02  0.3143E+03
      0.634  0.5420E+02  0.3185E+03
      0.712  0.5281E+02  0.3226E+03
      0.790  0.5285E+02  0.3268E+03
      0.868  0.5361E+02  0.3309E+03
      0.946  0.5480E+02  0.3352E+03
      1.024  0.5692E+02  0.3397E+03
      1.102  0.6045E+02  0.3444E+03
      1.180  0.6485E+02  0.3494E+03
      1.258  0.6879E+02  0.3548E+03
      1.336  0.7093E+02  0.3603E+03
      1.414  0.7038E+02  0.3658E+03
      1.492  0.6679E+02  0.3710E+03
      1.570  0.6078E+02  0.3758E+03
      1.648  0.5364E+02  0.3800E+03
      1.726  0.4612E+02  0.3835E+03
      1.804  0.3836E+02  0.3865E+03
      1.882  0.3101E+02  0.3890E+03
      1.960  0.2506E+02  0.3909E+03
      2.038  0.2072E+02  0.3925E+03
      2.115  0.1755E+02  0.3939E+03
      2.193  0.1518E+02  0.3951E+03
      2.271  0.1348E+02  0.3961E+03
      2.349  0.1252E+02  0.3971E+03
      2.427  0.1225E+02  0.3981E+03
      2.505  0.1222E+02  0.3990E+03
      2.583  0.1201E+02  0.4000E+03
      2.661  0.1169E+02  0.4009E+03
      2.739  0.1154E+02  0.4018E+03
      2.817  0.1181E+02  0.4027E+03
      2.895  0.1241E+02  0.4037E+03
      2.973  0.1288E+02  0.4047E+03
      3.051  0.1293E+02  0.4057E+03
      3.129  0.1268E+02  0.4067E+03
      3.207  0.1235E+02  0.4076E+03
      3.285  0.1205E+02  0.4086E+03
      3.363  0.1181E+02  0.4095E+03
      3.441  0.1159E+02  0.4104E+03
      3.519  0.1134E+02  0.4113E+03
      3.597  0.1119E+02  0.4122E+03
      3.675  0.1134E+02  0.4130E+03
      3.753  0.1178E+02  0.4140E+03
      3.831  0.1229E+02  0.4149E+03
      3.908  0.1250E+02  0.4159E+03
      3.986  0.1228E+02  0.4169E+03
      4.064  0.1181E+02  0.4178E+03
      4.142  0.1144E+02  0.4187E+03
      4.220  0.1138E+02  0.4196E+03
      4.298  0.1149E+02  0.4205E+03
      4.376  0.1150E+02  0.4214E+03
      4.454  0.1127E+02  0.4222E+03
      4.532  0.1107E+02  0.4231E+03
      4.610  0.1123E+02  0.4240E+03
      4.688  0.1166E+02  0.4249E+03
      4.766  0.1201E+02  0.4258E+03
      4.844  0.1206E+02  0.4268E+03
      4.922  0.1191E+02  0.4277E+03
      5.000  0.1176E+02  0.4286E+03
      5.078  0.1162E+02  0.4295E+03
      5.156  0.1146E+02  0.4304E+03
      5.234  0.1128E+02  0.4313E+03
      5.312  0.1110E+02  0.4321E+03
      5.390  0.1100E+02  0.4330E+03
      5.468  0.1098E+02  0.4339E+03
      5.546  0.1104E+02  0.4347E+03
      5.623  0.1115E+02  0.4356E+03
      5.701  0.1127E+02  0.4365E+03
      5.779  0.1146E+02  0.4374E+03
      5.857  0.1177E+02  0.4383E+03
      5.935  0.1205E+02  0.4392E+03
      6.013  0.1208E+02  0.4402E+03
      6.091  0.1181E+02  0.4411E+03
      6.169  0.1137E+02  0.4420E+03
      6.247  0.1096E+02  0.4428E+03
      6.325  0.1070E+02  0.4437E+03
      6.403  0.1058E+02  0.4445E+03
      6.481  0.1037E+02  0.4453E+03
      6.559  0.9819E+01  0.4461E+03
      6.637  0.8943E+01  0.4468E+03
      6.715  0.8014E+01  0.4474E+03
      6.793  0.7231E+01  0.4480E+03
      6.871  0.6522E+01  0.4485E+03
      6.949  0.5691E+01  0.4489E+03
      7.027  0.4660E+01  0.4493E+03
      7.105  0.3508E+01  0.4495E+03
      7.183  0.2391E+01  0.4497E+03
      7.261  0.1475E+01  0.4498E+03
      7.339  0.8500E+00  0.4499E+03
      7.416  0.4852E+00  0.4500E+03
      7.494  0.2850E+00  0.4500E+03
      7.572  0.1663E+00  0.4500E+03
      7.650  0.8937E-01  0.4500E+03
      7.728  0.4414E-01  0.4500E+03
      7.806  0.2023E-01  0.4500E+03
      7.884  0.8121E-02  0.4500E+03
      7.962  0.3388E-02  0.4500E+03
      8.040  0.1445E-02  0.4500E+03
      8.118  0.6657E-03  0.4500E+03
      8.196  0.3059E-03  0.4500E+03
      8.274  0.0000E+00  0.4500E+03
      8.352  0.0000E+00  0.4500E+03
      8.430  0.0000E+00  0.4500E+03
      8.508  0.0000E+00  0.4500E+03
