<?xml version="1.0" encoding="ISO-8859-1"?>
<modeling>
 <generator>
  <i name="program" type="string">vasp </i>
  <i name="version" type="string">5.4.1  </i>
  <i name="subversion" type="string">24Jun15 (build Oct 10 2016 12:42:00) complex                          parallel </i>
  <i name="platform" type="string">IFC91_ompi </i>
  <i name="date" type="string">2018 07 02 </i>
  <i name="time" type="string">11:07:21 </i>
 </generator>
 <incar>
  <i type="string" name="PREC">normal</i>
  <i type="string" name="ALGO"> fast</i>
  <i type="int" name="ISPIN">     1</i>
  <i type="int" name="NELMDL">    -4</i>
  <i type="int" name="NELMIN">     4</i>
  <i name="EDIFF">      0.00000100</i>
  <i name="ENCUT">    400.00000000</i>
  <i type="string" name="LREAL"> auto</i>
  <i type="int" name="ISMEAR">    -1</i>
  <i name="SIGMA">      0.10000000</i>
  <i type="logical" name="LWAVE"> F  </i>
  <i type="logical" name="LCHARG"> F  </i>
  <v type="int" name="KPOINT_BSE">    -1     0     0     0</v>
  <i type="string" name="GGA"> PE</i>
 </incar>
 <kpoints>
  <generation param="Monkhorst-Pack">
   <v type="int" name="divisions">       6        6        1 </v>
   <v name="usershift">      0.00000000       0.00000000       0.00000000 </v>
   <v name="genvec1">      0.16666667      -0.00000000       0.00000000 </v>
   <v name="genvec2">      0.00000000       0.16666667       0.00000000 </v>
   <v name="genvec3">      0.00000000       0.00000000       1.00000000 </v>
   <v name="shift">      0.50000000       0.50000000       0.00000000 </v>
  </generation>
  <varray name="kpointlist" >
   <v>       0.08333333       0.08333333       0.00000000 </v>
   <v>       0.00000000       0.08333333       0.00000000 </v>
   <v>      -0.08333333       0.00000000       0.00000000 </v>
   <v>       0.25000000       0.08333333       0.00000000 </v>
   <v>       0.16666667       0.25000000       0.00000000 </v>
   <v>      -0.08333333       0.16666667       0.00000000 </v>
   <v>       0.16666667      -0.08333333       0.00000000 </v>
   <v>      -0.08333333      -0.25000000       0.00000000 </v>
   <v>      -0.25000000      -0.16666667       0.00000000 </v>
   <v>       0.41666667       0.08333333       0.00000000 </v>
   <v>       0.33333333       0.41666667       0.00000000 </v>
   <v>      -0.08333333       0.33333333       0.00000000 </v>
   <v>       0.33333333      -0.08333333       0.00000000 </v>
   <v>      -0.08333333      -0.41666667       0.00000000 </v>
   <v>      -0.41666667      -0.33333333       0.00000000 </v>
   <v>      -0.41666667       0.08333333       0.00000000 </v>
   <v>       0.50000000      -0.41666667       0.00000000 </v>
   <v>      -0.08333333       0.50000000       0.00000000 </v>
   <v>       0.50000000      -0.08333333       0.00000000 </v>
   <v>      -0.08333333       0.41666667       0.00000000 </v>
   <v>       0.41666667       0.50000000       0.00000000 </v>
   <v>      -0.25000000       0.08333333       0.00000000 </v>
   <v>      -0.33333333      -0.25000000       0.00000000 </v>
   <v>      -0.08333333      -0.33333333       0.00000000 </v>
   <v>      -0.33333333      -0.08333333       0.00000000 </v>
   <v>      -0.08333333       0.25000000       0.00000000 </v>
   <v>       0.25000000       0.33333333       0.00000000 </v>
   <v>      -0.08333333       0.08333333       0.00000000 </v>
   <v>      -0.16666667      -0.08333333       0.00000000 </v>
   <v>      -0.08333333      -0.16666667       0.00000000 </v>
   <v>       0.25000000       0.25000000       0.00000000 </v>
   <v>       0.00000000       0.25000000       0.00000000 </v>
   <v>      -0.25000000       0.00000000       0.00000000 </v>
   <v>       0.41666667       0.25000000       0.00000000 </v>
   <v>       0.16666667       0.41666667       0.00000000 </v>
   <v>      -0.25000000       0.16666667       0.00000000 </v>
   <v>       0.16666667      -0.25000000       0.00000000 </v>
   <v>      -0.25000000      -0.41666667       0.00000000 </v>
   <v>      -0.41666667      -0.16666667       0.00000000 </v>
   <v>      -0.41666667       0.25000000       0.00000000 </v>
   <v>       0.33333333      -0.41666667       0.00000000 </v>
   <v>      -0.25000000       0.33333333       0.00000000 </v>
   <v>       0.33333333      -0.25000000       0.00000000 </v>
   <v>      -0.25000000       0.41666667       0.00000000 </v>
   <v>       0.41666667      -0.33333333       0.00000000 </v>
   <v>      -0.25000000       0.25000000       0.00000000 </v>
   <v>       0.50000000      -0.25000000       0.00000000 </v>
   <v>      -0.25000000       0.50000000       0.00000000 </v>
   <v>       0.41666667       0.41666667       0.00000000 </v>
   <v>       0.00000000       0.41666667       0.00000000 </v>
   <v>      -0.41666667      -0.00000000       0.00000000 </v>
   <v>      -0.41666667       0.41666667       0.00000000 </v>
   <v>       0.16666667      -0.41666667       0.00000000 </v>
   <v>      -0.41666667       0.16666667       0.00000000 </v>
  </varray>
  <varray name="weights" >
   <v>       0.01851852 </v>
   <v>       0.01851852 </v>
   <v>       0.01851852 </v>
   <v>       0.01851852 </v>
   <v>       0.01851852 </v>
   <v>       0.01851852 </v>
   <v>       0.01851852 </v>
   <v>       0.01851852 </v>
   <v>       0.01851852 </v>
   <v>       0.01851852 </v>
   <v>       0.01851852 </v>
   <v>       0.01851852 </v>
   <v>       0.01851852 </v>
   <v>       0.01851852 </v>
   <v>       0.01851852 </v>
   <v>       0.01851852 </v>
   <v>       0.01851852 </v>
   <v>       0.01851852 </v>
   <v>       0.01851852 </v>
   <v>       0.01851852 </v>
   <v>       0.01851852 </v>
   <v>       0.01851852 </v>
   <v>       0.01851852 </v>
   <v>       0.01851852 </v>
   <v>       0.01851852 </v>
   <v>       0.01851852 </v>
   <v>       0.01851852 </v>
   <v>       0.01851852 </v>
   <v>       0.01851852 </v>
   <v>       0.01851852 </v>
   <v>       0.01851852 </v>
   <v>       0.01851852 </v>
   <v>       0.01851852 </v>
   <v>       0.01851852 </v>
   <v>       0.01851852 </v>
   <v>       0.01851852 </v>
   <v>       0.01851852 </v>
   <v>       0.01851852 </v>
   <v>       0.01851852 </v>
   <v>       0.01851852 </v>
   <v>       0.01851852 </v>
   <v>       0.01851852 </v>
   <v>       0.01851852 </v>
   <v>       0.01851852 </v>
   <v>       0.01851852 </v>
   <v>       0.01851852 </v>
   <v>       0.01851852 </v>
   <v>       0.01851852 </v>
   <v>       0.01851852 </v>
   <v>       0.01851852 </v>
   <v>       0.01851852 </v>
   <v>       0.01851852 </v>
   <v>       0.01851852 </v>
   <v>       0.01851852 </v>
  </varray>
 </kpoints>
 <parameters>
  <separator name="general" >
   <i type="string" name="SYSTEM">unknown system</i>
   <i type="logical" name="LCOMPAT"> F  </i>
  </separator>
  <separator name="electronic" >
   <i type="string" name="PREC">normal</i>
   <i name="ENMAX">    400.00000000</i>
   <i name="ENAUG">    644.87300000</i>
   <i name="EDIFF">      0.00000100</i>
   <i type="int" name="IALGO">    68</i>
   <i type="int" name="IWAVPR">    10</i>
   <i type="int" name="NBANDS">   225</i>
   <i name="NELECT">    370.00000000</i>
   <i type="int" name="TURBO">     0</i>
   <i type="int" name="IRESTART">     0</i>
   <i type="int" name="NREBOOT">     0</i>
   <i type="int" name="NMIN">     0</i>
   <i name="EREF">      0.00000000</i>
   <separator name="electronic smearing" >
    <i type="int" name="ISMEAR">    -1</i>
    <i name="SIGMA">      0.10000000</i>
    <i name="KSPACING">      0.50000000</i>
    <i type="logical" name="KGAMMA"> T  </i>
   </separator>
   <separator name="electronic projectors" >
    <i type="logical" name="LREAL"> T  </i>
    <v name="ROPT">     -0.00050000     -0.00050000     -0.00050000</v>
    <i type="int" name="LMAXPAW">  -100</i>
    <i type="int" name="LMAXMIX">     2</i>
    <i type="logical" name="NLSPLINE"> F  </i>
   </separator>
   <separator name="electronic startup" >
    <i type="int" name="ISTART">     0</i>
    <i type="int" name="ICHARG">     2</i>
    <i type="int" name="INIWAV">     1</i>
   </separator>
   <separator name="electronic spin" >
    <i type="int" name="ISPIN">     1</i>
    <i type="logical" name="LNONCOLLINEAR"> F  </i>
    <v name="MAGMOM">      1.00000000      1.00000000      1.00000000      1.00000000      1.00000000      1.00000000      1.00000000      1.00000000      1.00000000      1.00000000      1.00000000      1.00000000      1.00000000      1.00000000      1.00000000      1.00000000      1.00000000      1.00000000      1.00000000      1.00000000
      1.00000000      1.00000000      1.00000000      1.00000000      1.00000000      1.00000000      1.00000000      1.00000000      1.00000000      1.00000000      1.00000000      1.00000000      1.00000000      1.00000000      1.00000000      1.00000000      1.00000000      1.00000000      1.00000000      1.00000000
</v>
    <i name="NUPDOWN">     -1.00000000</i>
    <i type="logical" name="LSORBIT"> F  </i>
    <v name="SAXIS">      0.00000000      0.00000000      1.00000000</v>
    <i type="logical" name="LSPIRAL"> F  </i>
    <v name="QSPIRAL">      0.00000000      0.00000000      0.00000000</v>
    <i type="logical" name="LZEROZ"> F  </i>
   </separator>
   <separator name="electronic exchange-correlation" >
    <i type="logical" name="LASPH"> F  </i>
    <i type="logical" name="LMETAGGA"> F  </i>
   </separator>
   <separator name="electronic convergence" >
    <i type="int" name="NELM">    60</i>
    <i type="int" name="NELMDL">    -4</i>
    <i type="int" name="NELMIN">     4</i>
    <i name="ENINI">    400.00000000</i>
    <separator name="electronic convergence detail" >
     <i type="logical" name="LDIAG"> T  </i>
     <i type="logical" name="LSUBROT"> F  </i>
     <i name="WEIMIN">      0.00000000</i>
     <i name="EBREAK">      0.00000000</i>
     <i name="DEPER">      0.30000000</i>
     <i type="int" name="NRMM">     4</i>
     <i name="TIME">      0.40000000</i>
    </separator>
   </separator>
   <separator name="electronic mixer" >
    <i name="AMIX">      0.40000000</i>
    <i name="BMIX">      1.00000000</i>
    <i name="AMIN">      0.10000000</i>
    <i name="AMIX_MAG">      1.60000000</i>
    <i name="BMIX_MAG">      1.00000000</i>
    <separator name="electronic mixer details" >
     <i type="int" name="IMIX">     4</i>
     <i type="logical" name="MIXFIRST"> F  </i>
     <i type="int" name="MAXMIX">   -45</i>
     <i name="WC">    100.00000000</i>
     <i type="int" name="INIMIX">     1</i>
     <i type="int" name="MIXPRE">     1</i>
     <i type="int" name="MREMOVE">     5</i>
    </separator>
   </separator>
   <separator name="electronic dipolcorrection" >
    <i type="logical" name="LDIPOL"> F  </i>
    <i type="logical" name="LMONO"> F  </i>
    <i type="int" name="IDIPOL">     0</i>
    <i name="EPSILON">      1.00000000</i>
    <v name="DIPOL">   -100.00000000   -100.00000000   -100.00000000</v>
    <i name="EFIELD">      0.00000000</i>
   </separator>
  </separator>
  <separator name="grids" >
   <i type="int" name="NGX">    42</i>
   <i type="int" name="NGY">    42</i>
   <i type="int" name="NGZ">   108</i>
   <i type="int" name="NGXF">    84</i>
   <i type="int" name="NGYF">    84</i>
   <i type="int" name="NGZF">   216</i>
   <i type="logical" name="ADDGRID"> F  </i>
  </separator>
  <separator name="ionic" >
   <i type="int" name="NSW">     0</i>
   <i type="int" name="IBRION">    -1</i>
   <i type="int" name="ISIF">     2</i>
   <i name="PSTRESS">      0.00000000</i>
   <i name="EDIFFG">      0.00001000</i>
   <i type="int" name="NFREE">     0</i>
   <i name="POTIM">      0.50000000</i>
   <i name="SMASS">     -3.00000000</i>
   <i name="SCALEE">      1.00000000</i>
  </separator>
  <separator name="ionic md" >
   <i name="TEBEG">      0.00010000</i>
   <i name="TEEND">      0.00010000</i>
   <i type="int" name="NBLOCK">     1</i>
   <i type="int" name="KBLOCK">     1</i>
   <i type="int" name="NPACO">   256</i>
   <i name="APACO">     16.00000000</i>
  </separator>
  <separator name="symmetry" >
   <i type="int" name="ISYM">     2</i>
   <i name="SYMPREC">      0.00001000</i>
  </separator>
  <separator name="dos" >
   <i type="logical" name="LORBIT"> F  </i>
   <v name="RWIGS">     -1.00000000     -1.00000000     -1.00000000</v>
   <i type="int" name="NEDOS">   301</i>
   <i name="EMIN">     10.00000000</i>
   <i name="EMAX">    -10.00000000</i>
   <i name="EFERMI">      0.00000000</i>
  </separator>
  <separator name="writing" >
   <i type="int" name="NWRITE">     2</i>
   <i type="logical" name="LWAVE"> F  </i>
   <i type="logical" name="LCHARG"> F  </i>
   <i type="logical" name="LPARD"> F  </i>
   <i type="logical" name="LVTOT"> F  </i>
   <i type="logical" name="LVHAR"> F  </i>
   <i type="logical" name="LELF"> F  </i>
   <i type="logical" name="LOPTICS"> F  </i>
   <v name="STM">      0.00000000      0.00000000      0.00000000      0.00000000      0.00000000      0.00000000      0.00000000</v>
  </separator>
  <separator name="performance" >
   <i type="int" name="NPAR">     5</i>
   <i type="int" name="NSIM">     4</i>
   <i type="int" name="NBLK">    -1</i>
   <i type="logical" name="LPLANE"> T  </i>
   <i type="logical" name="LSCALAPACK"> T  </i>
   <i type="logical" name="LSCAAWARE"> F  </i>
   <i type="logical" name="LSCALU"> F  </i>
   <i type="logical" name="LASYNC"> F  </i>
   <i type="logical" name="LORBITALREAL"> F  </i>
  </separator>
  <separator name="miscellaneous" >
   <i type="int" name="IDIOT">     3</i>
   <i type="logical" name="LMUSIC"> F  </i>
   <v name="POMASS">    195.08000000     12.01100000      1.00000000</v>
   <v name="DARWINR">      0.00000000      0.00000000      0.00000000</v>
   <v name="DARWINV">      1.00000000      1.00000000      1.00000000</v>
   <i type="logical" name="LCORR"> T  </i>
  </separator>
  <i type="logical" name="GGA_COMPAT"> T  </i>
  <i type="logical" name="LBERRY"> F  </i>
  <i type="int" name="ICORELEVEL">     0</i>
  <i type="logical" name="LDAU"> F  </i>
  <i type="int" name="I_CONSTRAINED_M">     0</i>
  <separator name="electronic exchange-correlation" >
   <i type="string" name="GGA">PE</i>
   <i type="int" name="VOSKOWN">     0</i>
   <i type="logical" name="LHFCALC"> F  </i>
   <i type="string" name="PRECFOCK"></i>
   <i type="logical" name="LSYMGRAD"> F  </i>
   <i type="logical" name="LHFONE"> F  </i>
   <i type="logical" name="LRHFCALC"> F  </i>
   <i type="logical" name="LTHOMAS"> F  </i>
   <i type="logical" name="LMODELHF"> F  </i>
   <i name="ENCUT4O">     -1.00000000</i>
   <i type="int" name="EXXOEP">     0</i>
   <i type="int" name="FOURORBIT">     0</i>
   <i name="AEXX">      0.00000000</i>
   <i name="HFALPHA">      0.00000000</i>
   <i name="MCALPHA">      0.00000000</i>
   <i name="ALDAX">      1.00000000</i>
   <i name="AGGAX">      1.00000000</i>
   <i name="ALDAC">      1.00000000</i>
   <i name="AGGAC">      1.00000000</i>
   <i type="int" name="NKREDX">     1</i>
   <i type="int" name="NKREDY">     1</i>
   <i type="int" name="NKREDZ">     1</i>
   <i type="logical" name="SHIFTRED"> F  </i>
   <i type="logical" name="ODDONLY"> F  </i>
   <i type="logical" name="EVENONLY"> F  </i>
   <i type="int" name="LMAXFOCK">     0</i>
   <i type="int" name="NMAXFOCKAE">     0</i>
   <i type="logical" name="LFOCKAEDFT"> F  </i>
   <i name="HFSCREEN">      0.00000000</i>
   <i name="HFSCREENC">      0.00000000</i>
   <i type="int" name="NBANDSGWLOW">     0</i>
  </separator>
  <separator name="vdW DFT" >
   <i type="logical" name="LUSE_VDW"> F  </i>
   <i name="Zab_VDW">     -0.84910000</i>
   <i name="PARAM1">      0.12340000</i>
   <i name="PARAM2">      1.00000000</i>
   <i name="PARAM3">      0.00000000</i>
  </separator>
  <separator name="model GW" >
   <i type="int" name="MODEL_GW">     0</i>
   <i name="MODEL_EPS0">     20.15524730</i>
   <i name="MODEL_ALPHA">      1.00000000</i>
  </separator>
  <separator name="linear response parameters" >
   <i type="logical" name="LEPSILON"> F  </i>
   <i type="logical" name="LRPA"> F  </i>
   <i type="logical" name="LNABLA"> F  </i>
   <i type="logical" name="LVEL"> F  </i>
   <i type="int" name="KINTER">     0</i>
   <i name="CSHIFT">      0.10000000</i>
   <i name="OMEGAMAX">     -1.00000000</i>
   <i name="DEG_THRESHOLD">      0.00200000</i>
  </separator>
  <separator name="orbital magnetization" >
   <i type="logical" name="NUCIND"> F  </i>
   <v name="MAGPOS">      0.00000000      0.00000000      0.00000000</v>
   <i type="logical" name="LNICSALL"> T  </i>
   <i type="logical" name="ORBITALMAG"> F  </i>
   <i type="logical" name="LMAGBLOCH"> F  </i>
   <i type="logical" name="LCHIMAG"> F  </i>
   <i type="logical" name="LGAUGE"> T  </i>
   <i type="int" name="MAGATOM">     0</i>
   <v name="MAGDIPOL">      0.00000000      0.00000000      0.00000000</v>
   <v name="AVECCONST">      0.00000000      0.00000000      0.00000000</v>
  </separator>
  <separator name="response functions" >
   <i type="logical" name="LADDER"> F  </i>
   <i type="logical" name="LFXC"> F  </i>
   <i type="logical" name="LHARTREE"> T  </i>
   <i type="int" name="IBSE">     0</i>
   <v type="int" name="KPOINT">    -1     0     0     0</v>
   <i type="logical" name="LTCTE"> F  </i>
   <i type="logical" name="LTETE"> F  </i>
   <i type="logical" name="LTRIPLET"> F  </i>
   <i type="logical" name="LFXCEPS"> F  </i>
   <i type="logical" name="LFXHEG"> F  </i>
   <i type="int" name="NATURALO">     0</i>
   <i type="logical" name="L2ORDER"> F  </i>
   <i type="logical" name="LUSEW"> F  </i>
   <i name="ENCUTGW">     -2.00000000</i>
   <i name="ENCUTGWSOFT">     -2.00000000</i>
   <i name="ENCUTLF">     -1.00000000</i>
   <i type="int" name="LMAXMP2">    -1</i>
   <i name="SCISSOR">      0.00000000</i>
   <i type="int" name="NOMEGA">     0</i>
   <i type="int" name="NOMEGAR">     0</i>
   <i type="int" name="NBANDSGW">    -1</i>
   <i type="int" name="NBANDSO">    -1</i>
   <i type="int" name="NBANDSV">    -1</i>
   <i type="int" name="NELM">     1</i>
   <i type="int" name="NELMHF">     1</i>
   <i type="int" name="DIM">     3</i>
   <i type="int" name="ANTIRES">     0</i>
   <i name="OMEGAMAX">    -30.00000000</i>
   <i name="OMEGAMIN">    -30.00000000</i>
   <i name="OMEGATL">   -200.00000000</i>
   <i type="int" name="OMEGAGRID">     0</i>
   <i name="CSHIFT">     -0.10000000</i>
   <i type="logical" name="SELFENERGY"> F  </i>
   <i type="logical" name="LSPECTRAL"> F  </i>
   <i type="logical" name="LSPECTRALGW"> F  </i>
   <i type="logical" name="LSINGLES"> F  </i>
   <i type="logical" name="LFERMIGW"> F  </i>
   <i type="logical" name="ODDONLYGW"> F  </i>
   <i type="logical" name="EVENONLYGW"> F  </i>
   <i type="int" name="NKREDLFX">     1</i>
   <i type="int" name="NKREDLFY">     1</i>
   <i type="int" name="NKREDLFZ">     1</i>
   <i type="int" name="MAXMEM">  1800</i>
   <i type="int" name="TELESCOPE">     0</i>
   <i type="int" name="TAUPAR">     1</i>
   <i type="int" name="OMEGAPAR">    -1</i>
   <i name="LAMBDA">      1.00000000</i>
  </separator>
  <separator name="External order field" >
   <i name="OFIELD_KAPPA">      0.00000000</i>
   <v name="OFIELD_K">      0.00000000      0.00000000      0.00000000</v>
   <i name="OFIELD_Q6_NEAR">      0.00000000</i>
   <i name="OFIELD_Q6_FAR">      0.00000000</i>
   <i name="OFIELD_A">      0.00000000</i>
  </separator>
 </parameters>
 <atominfo>
  <atoms>      40 </atoms>
  <types>       3 </types>
  <array name="atoms" >
   <dimension dim="1">ion</dimension>
   <field type="string">element</field>
   <field type="int">atomtype</field>
   <set>
    <rc><c>Pt</c><c>   1</c></rc>
    <rc><c>Pt</c><c>   1</c></rc>
    <rc><c>Pt</c><c>   1</c></rc>
    <rc><c>Pt</c><c>   1</c></rc>
    <rc><c>Pt</c><c>   1</c></rc>
    <rc><c>Pt</c><c>   1</c></rc>
    <rc><c>Pt</c><c>   1</c></rc>
    <rc><c>Pt</c><c>   1</c></rc>
    <rc><c>Pt</c><c>   1</c></rc>
    <rc><c>Pt</c><c>   1</c></rc>
    <rc><c>Pt</c><c>   1</c></rc>
    <rc><c>Pt</c><c>   1</c></rc>
    <rc><c>Pt</c><c>   1</c></rc>
    <rc><c>Pt</c><c>   1</c></rc>
    <rc><c>Pt</c><c>   1</c></rc>
    <rc><c>Pt</c><c>   1</c></rc>
    <rc><c>Pt</c><c>   1</c></rc>
    <rc><c>Pt</c><c>   1</c></rc>
    <rc><c>Pt</c><c>   1</c></rc>
    <rc><c>Pt</c><c>   1</c></rc>
    <rc><c>Pt</c><c>   1</c></rc>
    <rc><c>Pt</c><c>   1</c></rc>
    <rc><c>Pt</c><c>   1</c></rc>
    <rc><c>Pt</c><c>   1</c></rc>
    <rc><c>Pt</c><c>   1</c></rc>
    <rc><c>Pt</c><c>   1</c></rc>
    <rc><c>Pt</c><c>   1</c></rc>
    <rc><c>Pt</c><c>   1</c></rc>
    <rc><c>Pt</c><c>   1</c></rc>
    <rc><c>Pt</c><c>   1</c></rc>
    <rc><c>Pt</c><c>   1</c></rc>
    <rc><c>Pt</c><c>   1</c></rc>
    <rc><c>Pt</c><c>   1</c></rc>
    <rc><c>Pt</c><c>   1</c></rc>
    <rc><c>Pt</c><c>   1</c></rc>
    <rc><c>Pt</c><c>   1</c></rc>
    <rc><c>C </c><c>   2</c></rc>
    <rc><c>C </c><c>   2</c></rc>
    <rc><c>H </c><c>   3</c></rc>
    <rc><c>H </c><c>   3</c></rc>
   </set>
  </array>
  <array name="atomtypes" >
   <dimension dim="1">type</dimension>
   <field type="int">atomspertype</field>
   <field type="string">element</field>
   <field>mass</field>
   <field>valence</field>
   <field type="string">pseudopotential</field>
   <set>
    <rc><c>  36</c><c>Pt</c><c>    195.08000000</c><c>     10.00000000</c><c>  PAW_PBE Pt 04Feb2005                  </c></rc>
    <rc><c>   2</c><c>C </c><c>     12.01100000</c><c>      4.00000000</c><c>  PAW_PBE C 08Apr2002                   </c></rc>
    <rc><c>   2</c><c>H </c><c>      1.00000000</c><c>      1.00000000</c><c>  PAW_PBE H 15Jun2001                   </c></rc>
   </set>
  </array>
 </atominfo>
 <structure name="initialpos" >
  <crystal>
   <varray name="basis" >
    <v>       8.42164176       0.00000000       0.00000000 </v>
    <v>       4.21082088       7.29335571       0.00000000 </v>
    <v>       0.00000000       0.00000000      21.87624171 </v>
   </varray>
   <i name="volume">   1343.68315334 </i>
   <varray name="rec_basis" >
    <v>       0.11874169      -0.06855555       0.00000000 </v>
    <v>       0.00000000       0.13711110       0.00000000 </v>
    <v>       0.00000000       0.00000000       0.04571169 </v>
   </varray>
  </crystal>
  <varray name="positions" >
   <v>       0.00000000       0.00000000       0.34283768 </v>
   <v>       0.33333333       0.00000000       0.34283768 </v>
   <v>       0.66666667       0.00000000       0.34283768 </v>
   <v>       0.00000000       0.33333333       0.34283768 </v>
   <v>       0.33333333       0.33333333       0.34283768 </v>
   <v>       0.66666667       0.33333333       0.34283768 </v>
   <v>       0.00000000       0.66666667       0.34283768 </v>
   <v>       0.33333333       0.66666667       0.34283768 </v>
   <v>       0.66666667       0.66666667       0.34283768 </v>
   <v>       0.11111111       0.11111111       0.44761256 </v>
   <v>       0.44444444       0.11111111       0.44761256 </v>
   <v>       0.77777778       0.11111111       0.44761256 </v>
   <v>       0.11111111       0.44444444       0.44761256 </v>
   <v>       0.44444444       0.44444444       0.44761256 </v>
   <v>       0.77777778       0.44444444       0.44761256 </v>
   <v>       0.11111111       0.77777778       0.44761256 </v>
   <v>       0.44444444       0.77777778       0.44761256 </v>
   <v>       0.77777778       0.77777778       0.44761256 </v>
   <v>       0.88425364       0.22442670       0.55244905 </v>
   <v>       0.22037514       0.22537740       0.55266231 </v>
   <v>       0.55356433       0.22256263       0.55214259 </v>
   <v>       0.88614075       0.55637661       0.55115934 </v>
   <v>       0.22071967       0.55288914       0.55271045 </v>
   <v>       0.55416527       0.55477803       0.55170179 </v>
   <v>       0.88441851       0.88981885       0.55244345 </v>
   <v>       0.21879337       0.89011458       0.54957939 </v>
   <v>       0.55388861       0.89006082       0.55182025 </v>
   <v>       0.99833368       0.99918677       0.65626679 </v>
   <v>       0.32511129       0.99781399       0.65508055 </v>
   <v>       0.66841930       0.99401135       0.66103307 </v>
   <v>       0.99469208       0.33491963       0.65670818 </v>
   <v>       0.32407926       0.33653634       0.66334966 </v>
   <v>       0.66801121       0.33416489       0.66094572 </v>
   <v>       0.99526763       0.66743977       0.65682033 </v>
   <v>       0.32578457       0.67482079       0.65503296 </v>
   <v>       0.66275092       0.66707916       0.65653655 </v>
   <v>       0.52115895       0.15417498       0.73126460 </v>
   <v>       0.52154469       0.32035839       0.73128174 </v>
   <v>       0.47978989       0.09962517       0.76967703 </v>
   <v>       0.48082207       0.41613406       0.76969475 </v>
  </varray>
  <varray name="selective"  type="logical" >
   <v type="logical" >  F  F  F </v>
   <v type="logical" >  F  F  F </v>
   <v type="logical" >  F  F  F </v>
   <v type="logical" >  F  F  F </v>
   <v type="logical" >  F  F  F </v>
   <v type="logical" >  F  F  F </v>
   <v type="logical" >  F  F  F </v>
   <v type="logical" >  F  F  F </v>
   <v type="logical" >  F  F  F </v>
   <v type="logical" >  F  F  F </v>
   <v type="logical" >  F  F  F </v>
   <v type="logical" >  F  F  F </v>
   <v type="logical" >  F  F  F </v>
   <v type="logical" >  F  F  F </v>
   <v type="logical" >  F  F  F </v>
   <v type="logical" >  F  F  F </v>
   <v type="logical" >  F  F  F </v>
   <v type="logical" >  F  F  F </v>
   <v type="logical" >  T  T  T </v>
   <v type="logical" >  T  T  T </v>
   <v type="logical" >  T  T  T </v>
   <v type="logical" >  T  T  T </v>
   <v type="logical" >  T  T  T </v>
   <v type="logical" >  T  T  T </v>
   <v type="logical" >  T  T  T </v>
   <v type="logical" >  T  T  T </v>
   <v type="logical" >  T  T  T </v>
   <v type="logical" >  T  T  T </v>
   <v type="logical" >  T  T  T </v>
   <v type="logical" >  T  T  T </v>
   <v type="logical" >  T  T  T </v>
   <v type="logical" >  T  T  T </v>
   <v type="logical" >  T  T  T </v>
   <v type="logical" >  T  T  T </v>
   <v type="logical" >  T  T  T </v>
   <v type="logical" >  T  T  T </v>
   <v type="logical" >  T  T  T </v>
   <v type="logical" >  T  T  T </v>
   <v type="logical" >  T  T  T </v>
   <v type="logical" >  T  T  T </v>
  </varray>
  <nose>
   <v>      -3.00000000       0.00000000       0.00010000       0.00010000 </v>
  </nose>
 </structure>
 <calculation>
  <scstep>
   <time name="dav">  103.35  103.68</time>
   <time name="total">  105.02  105.36</time>
   <energy>
    <i name="alphaZ">    954.96919766 </i>
    <i name="ewald">  92647.82918553 </i>
    <i name="hartreedc">-121066.15765103 </i>
    <i name="XCdc">    152.47826249 </i>
    <i name="pawpsdc">  25281.75942305 </i>
    <i name="pawaedc"> -24264.71933415 </i>
    <i name="eentropy">     -0.56740522 </i>
    <i name="bandstr">   1929.49708805 </i>
    <i name="atom">  26567.24197818 </i>
    <i name="e_fr_energy">   2202.33074455 </i>
    <i name="e_wo_entrp">   2202.89814977 </i>
    <i name="e_0_energy">   2202.61444716 </i>
   </energy>
  </scstep>
  <scstep>
   <time name="dav">  115.39  115.53</time>
   <time name="total">  115.39  115.59</time>
   <energy>
    <i name="e_fr_energy">    -87.88675296 </i>
    <i name="e_wo_entrp">    -86.77280456 </i>
    <i name="e_0_energy">    -87.32977876 </i>
   </energy>
  </scstep>
  <scstep>
   <time name="dav">  118.05  118.74</time>
   <time name="total">  118.05  118.75</time>
   <energy>
    <i name="e_fr_energy">   -245.65905232 </i>
    <i name="e_wo_entrp">   -243.77294401 </i>
    <i name="e_0_energy">   -244.71599817 </i>
   </energy>
  </scstep>
  <scstep>
   <time name="dav">  123.81  123.78</time>
   <time name="total">  126.34  126.39</time>
   <energy>
    <i name="e_fr_energy">   -252.47413450 </i>
    <i name="e_wo_entrp">   -250.53973878 </i>
    <i name="e_0_energy">   -251.50693664 </i>
   </energy>
  </scstep>
  <scstep>
   <time name="diag">   13.97   13.97</time>
   <time name="diis">   45.50   45.59</time>
   <time name="orth">    3.66    3.75</time>
   <time name="total">   65.76   66.15</time>
   <energy>
    <i name="e_fr_energy">   -240.63628967 </i>
    <i name="e_wo_entrp">   -238.67167590 </i>
    <i name="e_0_energy">   -239.65398279 </i>
   </energy>
  </scstep>
  <scstep>
   <time name="diag">   13.60   13.70</time>
   <time name="diis">   45.69   46.30</time>
   <time name="orth">    3.47    3.51</time>
   <time name="total">   65.91   66.69</time>
   <energy>
    <i name="e_fr_energy">   -286.90819324 </i>
    <i name="e_wo_entrp">   -285.72490790 </i>
    <i name="e_0_energy">   -286.31655057 </i>
   </energy>
  </scstep>
  <scstep>
   <time name="diag">   13.80   13.80</time>
   <time name="diis">   44.31   44.67</time>
   <time name="orth">    3.36    3.39</time>
   <time name="total">   64.42   64.96</time>
   <energy>
    <i name="e_fr_energy">   -247.38146845 </i>
    <i name="e_wo_entrp">   -245.82947697 </i>
    <i name="e_0_energy">   -246.60547271 </i>
   </energy>
  </scstep>
  <scstep>
   <time name="diag">   13.75   13.75</time>
   <time name="diis">   45.23   45.61</time>
   <time name="orth">    3.38    3.44</time>
   <time name="total">   64.96   65.50</time>
   <energy>
    <i name="e_fr_energy">   -247.77264337 </i>
    <i name="e_wo_entrp">   -246.41320002 </i>
    <i name="e_0_energy">   -247.09292169 </i>
   </energy>
  </scstep>
  <scstep>
   <time name="diag">   15.19   15.18</time>
   <time name="diis">   45.40   45.67</time>
   <time name="orth">    3.50    3.50</time>
   <time name="total">   67.30   67.78</time>
   <energy>
    <i name="e_fr_energy">   -245.11864944 </i>
    <i name="e_wo_entrp">   -243.24533092 </i>
    <i name="e_0_energy">   -244.18199018 </i>
   </energy>
  </scstep>
  <scstep>
   <time name="diag">   13.81   13.80</time>
   <time name="diis">   44.14   44.40</time>
   <time name="orth">    3.54    3.55</time>
   <time name="total">   64.06   64.34</time>
   <energy>
    <i name="e_fr_energy">   -235.45643053 </i>
    <i name="e_wo_entrp">   -233.43888126 </i>
    <i name="e_0_energy">   -234.44765589 </i>
   </energy>
  </scstep>
  <scstep>
   <time name="diag">   13.42   13.59</time>
   <time name="diis">   45.95   46.46</time>
   <time name="orth">    3.55    3.59</time>
   <time name="total">   66.71   67.47</time>
   <energy>
    <i name="e_fr_energy">   -235.28551060 </i>
    <i name="e_wo_entrp">   -233.20273162 </i>
    <i name="e_0_energy">   -234.24412111 </i>
   </energy>
  </scstep>
  <scstep>
   <time name="diag">   13.50   13.61</time>
   <time name="diis">   44.89   45.09</time>
   <time name="orth">    3.46    3.49</time>
   <time name="total">   64.67   65.03</time>
   <energy>
    <i name="e_fr_energy">   -234.81300529 </i>
    <i name="e_wo_entrp">   -232.73596054 </i>
    <i name="e_0_energy">   -233.77448292 </i>
   </energy>
  </scstep>
  <scstep>
   <time name="diag">   13.70   13.70</time>
   <time name="diis">   46.40   46.38</time>
   <time name="orth">    3.45    3.48</time>
   <time name="total">   66.64   66.68</time>
   <energy>
    <i name="e_fr_energy">   -234.71156920 </i>
    <i name="e_wo_entrp">   -232.65287841 </i>
    <i name="e_0_energy">   -233.68222380 </i>
   </energy>
  </scstep>
  <scstep>
   <time name="diag">   13.73   13.73</time>
   <time name="diis">   46.96   47.11</time>
   <time name="orth">    3.46    3.47</time>
   <time name="total">   66.71   66.89</time>
   <energy>
    <i name="e_fr_energy">   -234.66928705 </i>
    <i name="e_wo_entrp">   -232.60546927 </i>
    <i name="e_0_energy">   -233.63737816 </i>
   </energy>
  </scstep>
  <scstep>
   <time name="diag">   13.62   13.76</time>
   <time name="diis">   45.39   45.40</time>
   <time name="orth">    3.30    3.32</time>
   <time name="total">   66.68   66.88</time>
   <energy>
    <i name="e_fr_energy">   -234.63194664 </i>
    <i name="e_wo_entrp">   -232.55872351 </i>
    <i name="e_0_energy">   -233.59533508 </i>
   </energy>
  </scstep>
  <scstep>
   <time name="diag">   13.73   13.75</time>
   <time name="diis">   44.74   44.81</time>
   <time name="orth">    3.35    3.44</time>
   <time name="total">   65.02   65.61</time>
   <energy>
    <i name="e_fr_energy">   -234.61447374 </i>
    <i name="e_wo_entrp">   -232.52890327 </i>
    <i name="e_0_energy">   -233.57168851 </i>
   </energy>
  </scstep>
  <scstep>
   <time name="diag">   16.33   16.46</time>
   <time name="diis">   44.79   45.29</time>
   <time name="orth">    3.56    3.60</time>
   <time name="total">   68.86   69.57</time>
   <energy>
    <i name="e_fr_energy">   -234.60466126 </i>
    <i name="e_wo_entrp">   -232.51724545 </i>
    <i name="e_0_energy">   -233.56095335 </i>
   </energy>
  </scstep>
  <scstep>
   <time name="diag">   13.75   13.77</time>
   <time name="diis">   45.47   45.69</time>
   <time name="orth">    5.27    6.17</time>
   <time name="total">   67.04   68.20</time>
   <energy>
    <i name="e_fr_energy">   -234.60316426 </i>
    <i name="e_wo_entrp">   -232.51782420 </i>
    <i name="e_0_energy">   -233.56049423 </i>
   </energy>
  </scstep>
  <scstep>
   <time name="diag">   14.02   14.01</time>
   <time name="diis">   46.47   46.49</time>
   <time name="orth">    3.43    3.43</time>
   <time name="total">   67.35   67.50</time>
   <energy>
    <i name="e_fr_energy">   -234.60243266 </i>
    <i name="e_wo_entrp">   -232.51661081 </i>
    <i name="e_0_energy">   -233.55952173 </i>
   </energy>
  </scstep>
  <scstep>
   <time name="diag">   13.80   13.80</time>
   <time name="diis">   45.64   45.69</time>
   <time name="orth">    3.45    3.45</time>
   <time name="total">   65.54   65.59</time>
   <energy>
    <i name="e_fr_energy">   -234.60202688 </i>
    <i name="e_wo_entrp">   -232.51618951 </i>
    <i name="e_0_energy">   -233.55910820 </i>
   </energy>
  </scstep>
  <scstep>
   <time name="diag">   13.43   13.51</time>
   <time name="diis">   45.85   46.22</time>
   <time name="orth">    3.46    3.47</time>
   <time name="total">   65.65   66.15</time>
   <energy>
    <i name="e_fr_energy">   -234.60185511 </i>
    <i name="e_wo_entrp">   -232.51581822 </i>
    <i name="e_0_energy">   -233.55883667 </i>
   </energy>
  </scstep>
  <scstep>
   <time name="diag">   13.54   13.71</time>
   <time name="diis">   44.67   45.78</time>
   <time name="orth">    3.57    3.58</time>
   <time name="total">   66.30   67.71</time>
   <energy>
    <i name="e_fr_energy">   -234.60178285 </i>
    <i name="e_wo_entrp">   -232.51553136 </i>
    <i name="e_0_energy">   -233.55865711 </i>
   </energy>
  </scstep>
  <scstep>
   <time name="diag">   13.76   13.86</time>
   <time name="diis">   45.29   45.76</time>
   <time name="orth">    3.42    3.44</time>
   <time name="total">   65.54   66.31</time>
   <energy>
    <i name="e_fr_energy">   -234.60191637 </i>
    <i name="e_wo_entrp">   -232.51512793 </i>
    <i name="e_0_energy">   -233.55852215 </i>
   </energy>
  </scstep>
  <scstep>
   <time name="diag">   14.12   14.21</time>
   <time name="diis">   45.72   45.86</time>
   <time name="orth">    3.92    4.01</time>
   <time name="total">   66.75   67.23</time>
   <energy>
    <i name="e_fr_energy">   -234.60222717 </i>
    <i name="e_wo_entrp">   -232.51467134 </i>
    <i name="e_0_energy">   -233.55844925 </i>
   </energy>
  </scstep>
  <scstep>
   <time name="diag">   13.64   13.69</time>
   <time name="diis">   47.10   47.51</time>
   <time name="orth">    3.53    3.54</time>
   <time name="total">   68.42   68.93</time>
   <energy>
    <i name="e_fr_energy">   -234.60237365 </i>
    <i name="e_wo_entrp">   -232.51495753 </i>
    <i name="e_0_energy">   -233.55866559 </i>
   </energy>
  </scstep>
  <scstep>
   <time name="diag">   17.04   17.13</time>
   <time name="diis">   45.26   45.58</time>
   <time name="orth">    3.45    3.51</time>
   <time name="total">   70.03   70.53</time>
   <energy>
    <i name="e_fr_energy">   -234.60269614 </i>
    <i name="e_wo_entrp">   -232.51563886 </i>
    <i name="e_0_energy">   -233.55916750 </i>
   </energy>
  </scstep>
  <scstep>
   <time name="diag">   13.99   13.99</time>
   <time name="diis">   44.96   45.32</time>
   <time name="orth">    3.56    3.57</time>
   <time name="total">   65.94   66.34</time>
   <energy>
    <i name="e_fr_energy">   -234.60280813 </i>
    <i name="e_wo_entrp">   -232.51587547 </i>
    <i name="e_0_energy">   -233.55934180 </i>
   </energy>
  </scstep>
  <scstep>
   <time name="diag">   13.73   13.82</time>
   <time name="diis">   44.78   45.48</time>
   <time name="orth">    3.48    3.49</time>
   <time name="total">   65.45   66.38</time>
   <energy>
    <i name="e_fr_energy">   -234.60312200 </i>
    <i name="e_wo_entrp">   -232.51635556 </i>
    <i name="e_0_energy">   -233.55973878 </i>
   </energy>
  </scstep>
  <scstep>
   <time name="diag">   20.54   20.55</time>
   <time name="diis">   39.39   39.81</time>
   <time name="orth">    3.49    3.54</time>
   <time name="total">   66.00   66.57</time>
   <energy>
    <i name="e_fr_energy">   -234.60327175 </i>
    <i name="e_wo_entrp">   -232.51651373 </i>
    <i name="e_0_energy">   -233.55989274 </i>
   </energy>
  </scstep>
  <scstep>
   <time name="diag">   13.27   13.27</time>
   <time name="diis">   35.54   35.79</time>
   <time name="orth">    3.45    3.46</time>
   <time name="total">   55.38   55.72</time>
   <energy>
    <i name="e_fr_energy">   -234.60343142 </i>
    <i name="e_wo_entrp">   -232.51662105 </i>
    <i name="e_0_energy">   -233.56002624 </i>
   </energy>
  </scstep>
  <scstep>
   <time name="diag">   13.30   13.35</time>
   <time name="diis">   33.00   33.25</time>
   <time name="orth">    3.53    3.53</time>
   <time name="total">   52.24   52.57</time>
   <energy>
    <i name="e_fr_energy">   -234.60351983 </i>
    <i name="e_wo_entrp">   -232.51669134 </i>
    <i name="e_0_energy">   -233.56010558 </i>
   </energy>
  </scstep>
  <scstep>
   <time name="diag">   14.01   14.02</time>
   <time name="diis">   30.91   30.92</time>
   <time name="orth">    3.41    3.44</time>
   <time name="total">   51.33   51.44</time>
   <energy>
    <i name="e_fr_energy">   -234.60359741 </i>
    <i name="e_wo_entrp">   -232.51674945 </i>
    <i name="e_0_energy">   -233.56017343 </i>
   </energy>
  </scstep>
  <scstep>
   <time name="diag">   13.76   13.82</time>
   <time name="diis">   28.48   28.84</time>
   <time name="orth">    3.45    3.47</time>
   <time name="total">   48.21   48.67</time>
   <energy>
    <i name="e_fr_energy">   -234.60362558 </i>
    <i name="e_wo_entrp">   -232.51677223 </i>
    <i name="e_0_energy">   -233.56019890 </i>
   </energy>
  </scstep>
  <scstep>
   <time name="diag">   13.64   13.68</time>
   <time name="diis">   28.24   28.60</time>
   <time name="orth">    3.43    3.56</time>
   <time name="total">   47.98   48.77</time>
   <energy>
    <i name="e_fr_energy">   -234.60365961 </i>
    <i name="e_wo_entrp">   -232.51679535 </i>
    <i name="e_0_energy">   -233.56022748 </i>
   </energy>
  </scstep>
  <scstep>
   <time name="diag">   14.32   14.51</time>
   <time name="diis">   26.16   26.24</time>
   <time name="orth">    3.56    3.56</time>
   <time name="total">   46.59   46.90</time>
   <energy>
    <i name="e_fr_energy">   -234.60367252 </i>
    <i name="e_wo_entrp">   -232.51680660 </i>
    <i name="e_0_energy">   -233.56023956 </i>
   </energy>
  </scstep>
  <scstep>
   <time name="diag">   13.71   13.82</time>
   <time name="diis">   24.24   24.23</time>
   <time name="orth">    3.55    3.61</time>
   <time name="total">   44.07   44.30</time>
   <energy>
    <i name="e_fr_energy">   -234.60367668 </i>
    <i name="e_wo_entrp">   -232.51680950 </i>
    <i name="e_0_energy">   -233.56024309 </i>
   </energy>
  </scstep>
  <scstep>
   <time name="diag">   13.68   13.69</time>
   <time name="diis">   24.77   24.97</time>
   <time name="orth">    5.92    5.92</time>
   <time name="total">   46.94   47.17</time>
   <energy>
    <i name="e_fr_energy">   -234.60368118 </i>
    <i name="e_wo_entrp">   -232.51680986 </i>
    <i name="e_0_energy">   -233.56024552 </i>
   </energy>
  </scstep>
  <scstep>
   <time name="diag">   13.56   13.57</time>
   <time name="diis">   21.87   22.08</time>
   <time name="orth">    3.44    3.49</time>
   <time name="total">   41.96   42.32</time>
   <energy>
    <i name="e_fr_energy">   -234.60368294 </i>
    <i name="e_wo_entrp">   -232.51680923 </i>
    <i name="e_0_energy">   -233.56024608 </i>
   </energy>
  </scstep>
  <scstep>
   <time name="diag">   13.18   13.37</time>
   <time name="diis">   21.12   21.20</time>
   <time name="orth">    3.46    3.49</time>
   <time name="total">   37.90   38.21</time>
   <energy>
    <i name="alphaZ">    954.96919766 </i>
    <i name="ewald">  92647.82918553 </i>
    <i name="hartreedc">-120793.60977535 </i>
    <i name="XCdc">    141.45891607 </i>
    <i name="pawpsdc">  32493.16095023 </i>
    <i name="pawaedc"> -31575.05610596 </i>
    <i name="eentropy">     -2.08687457 </i>
    <i name="bandstr">   -668.51115554 </i>
    <i name="atom">  26567.24197818 </i>
    <i name="e_fr_energy">   -234.60368375 </i>
    <i name="e_wo_entrp">   -232.51680918 </i>
    <i name="e_0_energy">   -233.56024646 </i>
   </energy>
  </scstep>
  <structure>
   <crystal>
    <varray name="basis" >
     <v>       8.42164176       0.00000000       0.00000000 </v>
     <v>       4.21082088       7.29335571       0.00000000 </v>
     <v>       0.00000000       0.00000000      21.87624171 </v>
    </varray>
    <i name="volume">   1343.68315334 </i>
    <varray name="rec_basis" >
     <v>       0.11874169      -0.06855555       0.00000000 </v>
     <v>       0.00000000       0.13711110       0.00000000 </v>
     <v>       0.00000000       0.00000000       0.04571169 </v>
    </varray>
   </crystal>
   <varray name="positions" >
    <v>       0.00000000       0.00000000       0.34283768 </v>
    <v>       0.33333333       0.00000000       0.34283768 </v>
    <v>       0.66666667       0.00000000       0.34283768 </v>
    <v>       0.00000000       0.33333333       0.34283768 </v>
    <v>       0.33333333       0.33333333       0.34283768 </v>
    <v>       0.66666667       0.33333333       0.34283768 </v>
    <v>       0.00000000       0.66666667       0.34283768 </v>
    <v>       0.33333333       0.66666667       0.34283768 </v>
    <v>       0.66666667       0.66666667       0.34283768 </v>
    <v>       0.11111111       0.11111111       0.44761256 </v>
    <v>       0.44444444       0.11111111       0.44761256 </v>
    <v>       0.77777778       0.11111111       0.44761256 </v>
    <v>       0.11111111       0.44444444       0.44761256 </v>
    <v>       0.44444444       0.44444444       0.44761256 </v>
    <v>       0.77777778       0.44444444       0.44761256 </v>
    <v>       0.11111111       0.77777778       0.44761256 </v>
    <v>       0.44444444       0.77777778       0.44761256 </v>
    <v>       0.77777778       0.77777778       0.44761256 </v>
    <v>       0.88425364       0.22442670       0.55244905 </v>
    <v>       0.22037514       0.22537740       0.55266231 </v>
    <v>       0.55356433       0.22256263       0.55214259 </v>
    <v>       0.88614075       0.55637661       0.55115934 </v>
    <v>       0.22071967       0.55288914       0.55271045 </v>
    <v>       0.55416527       0.55477803       0.55170179 </v>
    <v>       0.88441851       0.88981885       0.55244345 </v>
    <v>       0.21879337       0.89011458       0.54957939 </v>
    <v>       0.55388861       0.89006082       0.55182025 </v>
    <v>       0.99833368       0.99918677       0.65626679 </v>
    <v>       0.32511129       0.99781399       0.65508055 </v>
    <v>       0.66841930       0.99401135       0.66103307 </v>
    <v>       0.99469208       0.33491963       0.65670818 </v>
    <v>       0.32407926       0.33653634       0.66334966 </v>
    <v>       0.66801121       0.33416489       0.66094572 </v>
    <v>       0.99526763       0.66743977       0.65682033 </v>
    <v>       0.32578457       0.67482079       0.65503296 </v>
    <v>       0.66275092       0.66707916       0.65653655 </v>
    <v>       0.52115895       0.15417498       0.73126460 </v>
    <v>       0.52154469       0.32035839       0.73128174 </v>
    <v>       0.47978989       0.09962517       0.76967703 </v>
    <v>       0.48082207       0.41613406       0.76969475 </v>
   </varray>
  </structure>
  <varray name="forces" >
   <v>      -0.03886347       0.02434777      -0.08796815 </v>
   <v>       0.05239887      -0.01718638      -0.08471352 </v>
   <v>       0.01938920      -0.00387350      -0.07846901 </v>
   <v>       0.00742541      -0.01554414      -0.04054790 </v>
   <v>       0.01258549      -0.00367496      -0.05282998 </v>
   <v>       0.01494770      -0.01018970      -0.07872827 </v>
   <v>       0.02051628       0.00446728      -0.04153950 </v>
   <v>       0.04213713      -0.03283588      -0.08474827 </v>
   <v>      -0.01255315       0.01082556      -0.06311770 </v>
   <v>       0.03424145       0.02693165      -0.06777815 </v>
   <v>      -0.07944702       0.02072904       0.13210241 </v>
   <v>       0.04861447      -0.03599577       0.16466890 </v>
   <v>       0.03046440      -0.02132350       0.16535649 </v>
   <v>      -0.06479323       0.04881762       0.12735082 </v>
   <v>      -0.03929409      -0.04924481       0.13486626 </v>
   <v>      -0.01127899      -0.05437814      -0.06455714 </v>
   <v>      -0.02708344       0.01476767      -0.08022983 </v>
   <v>       0.01307222       0.05168123       0.14264629 </v>
   <v>      -0.00027770       0.00673473      -0.00696431 </v>
   <v>       0.00263985      -0.00386466      -0.00767480 </v>
   <v>      -0.00517300       0.00440634       0.00119755 </v>
   <v>       0.00143952       0.00676357      -0.00566123 </v>
   <v>      -0.00601610       0.00283192      -0.01234385 </v>
   <v>      -0.00353746       0.00760416       0.00075781 </v>
   <v>      -0.00842724       0.00728680      -0.00904357 </v>
   <v>      -0.00211278      -0.00084639      -0.00477187 </v>
   <v>      -0.00635661      -0.00147941      -0.00999179 </v>
   <v>      -0.00758591       0.01216881       0.00950158 </v>
   <v>       0.00517019      -0.01022962       0.00287921 </v>
   <v>      -0.00370740       0.00509774      -0.00677502 </v>
   <v>       0.00517134      -0.00749576       0.00043135 </v>
   <v>      -0.00083420      -0.00068714       0.00061224 </v>
   <v>      -0.00014678       0.00966814       0.01170041 </v>
   <v>       0.00105225       0.00362390      -0.01002973 </v>
   <v>      -0.01063528      -0.00658142       0.00793300 </v>
   <v>       0.00283020       0.00259006       0.00828066 </v>
   <v>      -0.00028487       0.00192711       0.00033327 </v>
   <v>      -0.00406649       0.00616322      -0.00908311 </v>
   <v>       0.01079466      -0.00594164      -0.00806031 </v>
   <v>       0.00758458       0.00193847       0.00500878 </v>
  </varray>
  <varray name="stress" >
   <v>     -40.13297739       0.40672538      -0.12546246 </v>
   <v>       0.40672543     -39.70703834       0.30637180 </v>
   <v>      -0.12546253       0.30637186      -0.04473259 </v>
  </varray>
  <energy>
   <i name="e_fr_energy">   -234.60368375 </i>
   <i name="e_wo_entrp">   -233.56024646 </i>
   <i name="e_0_energy">     -2.08687457 </i>
  </energy>
  <time name="totalsc"> 2658.11 2676.86</time>
  <eigenvalues>
   <array>
    <dimension dim="1">band</dimension>
    <dimension dim="2">kpoint</dimension>
    <dimension dim="3">spin</dimension>
    <field>eigene</field>
    <field>occ</field>
    <set>
     <set comment="spin 1">
      <set comment="kpoint 1">
       <r>  -13.8159    1.0000 </r>
       <r>   -8.5887    1.0000 </r>
       <r>   -7.7663    1.0000 </r>
       <r>   -6.7219    1.0000 </r>
       <r>   -6.3647    1.0000 </r>
       <r>   -5.4887    1.0000 </r>
       <r>   -5.4311    1.0000 </r>
       <r>   -5.3999    1.0000 </r>
       <r>   -5.3460    1.0000 </r>
       <r>   -5.2641    1.0000 </r>
       <r>   -5.2274    1.0000 </r>
       <r>   -5.1878    1.0000 </r>
       <r>   -5.1526    1.0000 </r>
       <r>   -4.9037    1.0000 </r>
       <r>   -4.7832    1.0000 </r>
       <r>   -4.7218    1.0000 </r>
       <r>   -4.6969    1.0000 </r>
       <r>   -4.6781    1.0000 </r>
       <r>   -4.6718    1.0000 </r>
       <r>   -4.4434    1.0000 </r>
       <r>   -4.4029    1.0000 </r>
       <r>   -4.3522    1.0000 </r>
       <r>   -4.2395    1.0000 </r>
       <r>   -4.2149    1.0000 </r>
       <r>   -4.2047    1.0000 </r>
       <r>   -4.1296    1.0000 </r>
       <r>   -4.0887    1.0000 </r>
       <r>   -4.0441    1.0000 </r>
       <r>   -3.9920    1.0000 </r>
       <r>   -3.9310    1.0000 </r>
       <r>   -3.9195    1.0000 </r>
       <r>   -3.8801    1.0000 </r>
       <r>   -3.8459    1.0000 </r>
       <r>   -3.8157    1.0000 </r>
       <r>   -3.8020    1.0000 </r>
       <r>   -3.7811    1.0000 </r>
       <r>   -3.7570    1.0000 </r>
       <r>   -3.7439    1.0000 </r>
       <r>   -3.7416    1.0000 </r>
       <r>   -3.7091    1.0000 </r>
       <r>   -3.6774    1.0000 </r>
       <r>   -3.6098    1.0000 </r>
       <r>   -3.5485    1.0000 </r>
       <r>   -3.5290    1.0000 </r>
       <r>   -3.3118    1.0000 </r>
       <r>   -3.2270    1.0000 </r>
       <r>   -3.1494    1.0000 </r>
       <r>   -3.1226    1.0000 </r>
       <r>   -3.1083    1.0000 </r>
       <r>   -3.1008    1.0000 </r>
       <r>   -3.0724    1.0000 </r>
       <r>   -3.0317    1.0000 </r>
       <r>   -2.9962    1.0000 </r>
       <r>   -2.9566    1.0000 </r>
       <r>   -2.8990    1.0000 </r>
       <r>   -2.8286    1.0000 </r>
       <r>   -2.8091    1.0000 </r>
       <r>   -2.7853    1.0000 </r>
       <r>   -2.6549    1.0000 </r>
       <r>   -2.5501    1.0000 </r>
       <r>   -2.3592    1.0000 </r>
       <r>   -2.3129    1.0000 </r>
       <r>   -2.2755    1.0000 </r>
       <r>   -2.2557    1.0000 </r>
       <r>   -2.2302    1.0000 </r>
       <r>   -2.2186    1.0000 </r>
       <r>   -2.2021    1.0000 </r>
       <r>   -2.1722    1.0000 </r>
       <r>   -2.1471    1.0000 </r>
       <r>   -2.1359    1.0000 </r>
       <r>   -2.1185    1.0000 </r>
       <r>   -2.0892    1.0000 </r>
       <r>   -2.0693    1.0000 </r>
       <r>   -2.0416    1.0000 </r>
       <r>   -2.0150    1.0000 </r>
       <r>   -1.9941    1.0000 </r>
       <r>   -1.9668    1.0000 </r>
       <r>   -1.9431    1.0000 </r>
       <r>   -1.9039    1.0000 </r>
       <r>   -1.8986    1.0000 </r>
       <r>   -1.8635    1.0000 </r>
       <r>   -1.8598    1.0000 </r>
       <r>   -1.8341    1.0000 </r>
       <r>   -1.8010    1.0000 </r>
       <r>   -1.7842    1.0000 </r>
       <r>   -1.7532    1.0000 </r>
       <r>   -1.7341    1.0000 </r>
       <r>   -1.7205    1.0000 </r>
       <r>   -1.6069    1.0000 </r>
       <r>   -1.6036    1.0000 </r>
       <r>   -1.5761    1.0000 </r>
       <r>   -1.5674    1.0000 </r>
       <r>   -1.5471    1.0000 </r>
       <r>   -1.5255    1.0000 </r>
       <r>   -1.5115    1.0000 </r>
       <r>   -1.4751    1.0000 </r>
       <r>   -1.4582    1.0000 </r>
       <r>   -1.4480    1.0000 </r>
       <r>   -1.4063    1.0000 </r>
       <r>   -1.4052    1.0000 </r>
       <r>   -1.3832    1.0000 </r>
       <r>   -1.3756    1.0000 </r>
       <r>   -1.3413    1.0000 </r>
       <r>   -1.3231    1.0000 </r>
       <r>   -1.2473    1.0000 </r>
       <r>   -1.2281    1.0000 </r>
       <r>   -1.2076    1.0000 </r>
       <r>   -1.2050    1.0000 </r>
       <r>   -1.1914    1.0000 </r>
       <r>   -1.1831    1.0000 </r>
       <r>   -1.1049    1.0000 </r>
       <r>   -1.0679    1.0000 </r>
       <r>   -1.0121    1.0000 </r>
       <r>   -0.9436    1.0000 </r>
       <r>   -0.8472    1.0000 </r>
       <r>   -0.7976    1.0000 </r>
       <r>   -0.7387    1.0000 </r>
       <r>   -0.7085    1.0000 </r>
       <r>   -0.6788    1.0000 </r>
       <r>   -0.6531    1.0000 </r>
       <r>   -0.6212    1.0000 </r>
       <r>   -0.6039    1.0000 </r>
       <r>   -0.5728    1.0000 </r>
       <r>   -0.5508    1.0000 </r>
       <r>   -0.5003    1.0000 </r>
       <r>   -0.4771    1.0000 </r>
       <r>   -0.4415    1.0000 </r>
       <r>   -0.3764    1.0000 </r>
       <r>   -0.2962    1.0000 </r>
       <r>   -0.2678    1.0000 </r>
       <r>   -0.2102    1.0000 </r>
       <r>   -0.1895    1.0000 </r>
       <r>   -0.1391    1.0000 </r>
       <r>   -0.0662    1.0000 </r>
       <r>   -0.0471    1.0000 </r>
       <r>   -0.0316    1.0000 </r>
       <r>   -0.0198    1.0000 </r>
       <r>   -0.0032    1.0000 </r>
       <r>    0.0119    1.0000 </r>
       <r>    0.0637    1.0000 </r>
       <r>    0.0790    1.0000 </r>
       <r>    0.1272    1.0000 </r>
       <r>    0.1887    1.0000 </r>
       <r>    0.1966    1.0000 </r>
       <r>    0.2531    1.0000 </r>
       <r>    0.2731    1.0000 </r>
       <r>    0.2976    1.0000 </r>
       <r>    0.3103    1.0000 </r>
       <r>    0.3404    1.0000 </r>
       <r>    0.3560    1.0000 </r>
       <r>    0.3924    1.0000 </r>
       <r>    0.4757    1.0000 </r>
       <r>    0.5101    0.9999 </r>
       <r>    0.5228    0.9999 </r>
       <r>    0.5490    0.9999 </r>
       <r>    0.5758    0.9999 </r>
       <r>    0.5971    0.9998 </r>
       <r>    0.6023    0.9998 </r>
       <r>    0.6284    0.9998 </r>
       <r>    0.6798    0.9997 </r>
       <r>    0.6872    0.9996 </r>
       <r>    0.6969    0.9996 </r>
       <r>    0.7308    0.9994 </r>
       <r>    0.7499    0.9993 </r>
       <r>    0.7758    0.9991 </r>
       <r>    0.7838    0.9990 </r>
       <r>    0.8097    0.9987 </r>
       <r>    0.8344    0.9984 </r>
       <r>    0.8669    0.9977 </r>
       <r>    0.8863    0.9973 </r>
       <r>    0.8988    0.9969 </r>
       <r>    0.9166    0.9963 </r>
       <r>    0.9231    0.9960 </r>
       <r>    0.9411    0.9953 </r>
       <r>    0.9556    0.9945 </r>
       <r>    1.0032    0.9912 </r>
       <r>    1.0093    0.9907 </r>
       <r>    1.0454    0.9867 </r>
       <r>    1.0872    0.9799 </r>
       <r>    1.1052    0.9761 </r>
       <r>    1.1157    0.9735 </r>
       <r>    1.1302    0.9695 </r>
       <r>    1.1516    0.9625 </r>
       <r>    1.1778    0.9517 </r>
       <r>    1.1884    0.9466 </r>
       <r>    1.2201    0.9282 </r>
       <r>    1.2413    0.9126 </r>
       <r>    1.2539    0.9021 </r>
       <r>    1.2653    0.8916 </r>
       <r>    1.2727    0.8841 </r>
       <r>    1.2881    0.8674 </r>
       <r>    1.2966    0.8573 </r>
       <r>    1.3500    0.7790 </r>
       <r>    1.4592    0.5417 </r>
       <r>    1.4927    0.4583 </r>
       <r>    1.5097    0.4165 </r>
       <r>    1.5275    0.3739 </r>
       <r>    1.5400    0.3452 </r>
       <r>    1.5830    0.2553 </r>
       <r>    1.6060    0.2141 </r>
       <r>    1.9084    0.0131 </r>
       <r>    2.0037    0.0051 </r>
       <r>    2.2081    0.0007 </r>
       <r>    2.3561    0.0002 </r>
       <r>    2.4136    0.0001 </r>
       <r>    2.5303    0.0000 </r>
       <r>    2.8586    0.0000 </r>
       <r>    3.5214    0.0000 </r>
       <r>    4.1429    0.0000 </r>
       <r>    4.4732    0.0000 </r>
       <r>    4.6530    0.0000 </r>
       <r>    4.8696    0.0000 </r>
       <r>    5.0470    0.0000 </r>
       <r>    5.2026    0.0000 </r>
       <r>    5.3624    0.0000 </r>
       <r>    5.7543    0.0000 </r>
       <r>    5.8587    0.0000 </r>
       <r>    5.9064    0.0000 </r>
       <r>    6.2336    0.0000 </r>
       <r>    6.2909    0.0000 </r>
       <r>    6.5109    0.0000 </r>
       <r>    6.6591    0.0000 </r>
       <r>    6.7381    0.0000 </r>
       <r>    6.7878    0.0000 </r>
       <r>    6.9664    0.0000 </r>
      </set>
      <set comment="kpoint 2">
       <r>  -13.8159    1.0000 </r>
       <r>   -8.5887    1.0000 </r>
       <r>   -7.7663    1.0000 </r>
       <r>   -6.7219    1.0000 </r>
       <r>   -6.3647    1.0000 </r>
       <r>   -5.4912    1.0000 </r>
       <r>   -5.4310    1.0000 </r>
       <r>   -5.4001    1.0000 </r>
       <r>   -5.3431    1.0000 </r>
       <r>   -5.2641    1.0000 </r>
       <r>   -5.2269    1.0000 </r>
       <r>   -5.1844    1.0000 </r>
       <r>   -5.1565    1.0000 </r>
       <r>   -4.9039    1.0000 </r>
       <r>   -4.7828    1.0000 </r>
       <r>   -4.7211    1.0000 </r>
       <r>   -4.6972    1.0000 </r>
       <r>   -4.6788    1.0000 </r>
       <r>   -4.6722    1.0000 </r>
       <r>   -4.4434    1.0000 </r>
       <r>   -4.4030    1.0000 </r>
       <r>   -4.3519    1.0000 </r>
       <r>   -4.2394    1.0000 </r>
       <r>   -4.2153    1.0000 </r>
       <r>   -4.2040    1.0000 </r>
       <r>   -4.1294    1.0000 </r>
       <r>   -4.0888    1.0000 </r>
       <r>   -4.0441    1.0000 </r>
       <r>   -3.9921    1.0000 </r>
       <r>   -3.9313    1.0000 </r>
       <r>   -3.9198    1.0000 </r>
       <r>   -3.8804    1.0000 </r>
       <r>   -3.8468    1.0000 </r>
       <r>   -3.8163    1.0000 </r>
       <r>   -3.8039    1.0000 </r>
       <r>   -3.7803    1.0000 </r>
       <r>   -3.7561    1.0000 </r>
       <r>   -3.7432    1.0000 </r>
       <r>   -3.7390    1.0000 </r>
       <r>   -3.7083    1.0000 </r>
       <r>   -3.6773    1.0000 </r>
       <r>   -3.6108    1.0000 </r>
       <r>   -3.5489    1.0000 </r>
       <r>   -3.5294    1.0000 </r>
       <r>   -3.3122    1.0000 </r>
       <r>   -3.2266    1.0000 </r>
       <r>   -3.1503    1.0000 </r>
       <r>   -3.1227    1.0000 </r>
       <r>   -3.1078    1.0000 </r>
       <r>   -3.1004    1.0000 </r>
       <r>   -3.0721    1.0000 </r>
       <r>   -3.0316    1.0000 </r>
       <r>   -2.9957    1.0000 </r>
       <r>   -2.9569    1.0000 </r>
       <r>   -2.8990    1.0000 </r>
       <r>   -2.8283    1.0000 </r>
       <r>   -2.8107    1.0000 </r>
       <r>   -2.7842    1.0000 </r>
       <r>   -2.6550    1.0000 </r>
       <r>   -2.5501    1.0000 </r>
       <r>   -2.3584    1.0000 </r>
       <r>   -2.3122    1.0000 </r>
       <r>   -2.2742    1.0000 </r>
       <r>   -2.2539    1.0000 </r>
       <r>   -2.2304    1.0000 </r>
       <r>   -2.2152    1.0000 </r>
       <r>   -2.2055    1.0000 </r>
       <r>   -2.1710    1.0000 </r>
       <r>   -2.1481    1.0000 </r>
       <r>   -2.1378    1.0000 </r>
       <r>   -2.1176    1.0000 </r>
       <r>   -2.0903    1.0000 </r>
       <r>   -2.0688    1.0000 </r>
       <r>   -2.0432    1.0000 </r>
       <r>   -2.0134    1.0000 </r>
       <r>   -1.9936    1.0000 </r>
       <r>   -1.9675    1.0000 </r>
       <r>   -1.9432    1.0000 </r>
       <r>   -1.9037    1.0000 </r>
       <r>   -1.8966    1.0000 </r>
       <r>   -1.8638    1.0000 </r>
       <r>   -1.8606    1.0000 </r>
       <r>   -1.8362    1.0000 </r>
       <r>   -1.8057    1.0000 </r>
       <r>   -1.7863    1.0000 </r>
       <r>   -1.7505    1.0000 </r>
       <r>   -1.7319    1.0000 </r>
       <r>   -1.7185    1.0000 </r>
       <r>   -1.6095    1.0000 </r>
       <r>   -1.6039    1.0000 </r>
       <r>   -1.5723    1.0000 </r>
       <r>   -1.5681    1.0000 </r>
       <r>   -1.5460    1.0000 </r>
       <r>   -1.5249    1.0000 </r>
       <r>   -1.5120    1.0000 </r>
       <r>   -1.4745    1.0000 </r>
       <r>   -1.4628    1.0000 </r>
       <r>   -1.4480    1.0000 </r>
       <r>   -1.4064    1.0000 </r>
       <r>   -1.4048    1.0000 </r>
       <r>   -1.3839    1.0000 </r>
       <r>   -1.3756    1.0000 </r>
       <r>   -1.3408    1.0000 </r>
       <r>   -1.3219    1.0000 </r>
       <r>   -1.2454    1.0000 </r>
       <r>   -1.2275    1.0000 </r>
       <r>   -1.2076    1.0000 </r>
       <r>   -1.2050    1.0000 </r>
       <r>   -1.1938    1.0000 </r>
       <r>   -1.1835    1.0000 </r>
       <r>   -1.1039    1.0000 </r>
       <r>   -1.0705    1.0000 </r>
       <r>   -1.0121    1.0000 </r>
       <r>   -0.9418    1.0000 </r>
       <r>   -0.8466    1.0000 </r>
       <r>   -0.7976    1.0000 </r>
       <r>   -0.7386    1.0000 </r>
       <r>   -0.7083    1.0000 </r>
       <r>   -0.6790    1.0000 </r>
       <r>   -0.6527    1.0000 </r>
       <r>   -0.6209    1.0000 </r>
       <r>   -0.6045    1.0000 </r>
       <r>   -0.5735    1.0000 </r>
       <r>   -0.5506    1.0000 </r>
       <r>   -0.5011    1.0000 </r>
       <r>   -0.4790    1.0000 </r>
       <r>   -0.4398    1.0000 </r>
       <r>   -0.3764    1.0000 </r>
       <r>   -0.2973    1.0000 </r>
       <r>   -0.2685    1.0000 </r>
       <r>   -0.2091    1.0000 </r>
       <r>   -0.1901    1.0000 </r>
       <r>   -0.1395    1.0000 </r>
       <r>   -0.0639    1.0000 </r>
       <r>   -0.0472    1.0000 </r>
       <r>   -0.0325    1.0000 </r>
       <r>   -0.0212    1.0000 </r>
       <r>   -0.0038    1.0000 </r>
       <r>    0.0105    1.0000 </r>
       <r>    0.0637    1.0000 </r>
       <r>    0.0782    1.0000 </r>
       <r>    0.1284    1.0000 </r>
       <r>    0.1872    1.0000 </r>
       <r>    0.1978    1.0000 </r>
       <r>    0.2522    1.0000 </r>
       <r>    0.2731    1.0000 </r>
       <r>    0.2978    1.0000 </r>
       <r>    0.3105    1.0000 </r>
       <r>    0.3404    1.0000 </r>
       <r>    0.3565    1.0000 </r>
       <r>    0.3933    1.0000 </r>
       <r>    0.4777    1.0000 </r>
       <r>    0.5103    0.9999 </r>
       <r>    0.5228    0.9999 </r>
       <r>    0.5498    0.9999 </r>
       <r>    0.5749    0.9999 </r>
       <r>    0.5964    0.9998 </r>
       <r>    0.6016    0.9998 </r>
       <r>    0.6284    0.9998 </r>
       <r>    0.6793    0.9997 </r>
       <r>    0.6870    0.9996 </r>
       <r>    0.6968    0.9996 </r>
       <r>    0.7315    0.9994 </r>
       <r>    0.7499    0.9993 </r>
       <r>    0.7754    0.9991 </r>
       <r>    0.7855    0.9990 </r>
       <r>    0.8092    0.9987 </r>
       <r>    0.8356    0.9983 </r>
       <r>    0.8675    0.9977 </r>
       <r>    0.8853    0.9973 </r>
       <r>    0.8977    0.9969 </r>
       <r>    0.9167    0.9963 </r>
       <r>    0.9253    0.9960 </r>
       <r>    0.9409    0.9953 </r>
       <r>    0.9567    0.9945 </r>
       <r>    1.0024    0.9913 </r>
       <r>    1.0089    0.9907 </r>
       <r>    1.0460    0.9866 </r>
       <r>    1.0864    0.9801 </r>
       <r>    1.1061    0.9758 </r>
       <r>    1.1149    0.9737 </r>
       <r>    1.1318    0.9690 </r>
       <r>    1.1524    0.9622 </r>
       <r>    1.1765    0.9523 </r>
       <r>    1.1880    0.9468 </r>
       <r>    1.2203    0.9280 </r>
       <r>    1.2396    0.9140 </r>
       <r>    1.2520    0.9037 </r>
       <r>    1.2632    0.8936 </r>
       <r>    1.2713    0.8856 </r>
       <r>    1.2884    0.8672 </r>
       <r>    1.2971    0.8567 </r>
       <r>    1.3519    0.7756 </r>
       <r>    1.4610    0.5374 </r>
       <r>    1.4943    0.4542 </r>
       <r>    1.5081    0.4203 </r>
       <r>    1.5276    0.3736 </r>
       <r>    1.5415    0.3418 </r>
       <r>    1.5830    0.2554 </r>
       <r>    1.6074    0.2118 </r>
       <r>    1.9086    0.0130 </r>
       <r>    2.0033    0.0051 </r>
       <r>    2.2085    0.0007 </r>
       <r>    2.3551    0.0002 </r>
       <r>    2.4151    0.0001 </r>
       <r>    2.5288    0.0000 </r>
       <r>    2.8583    0.0000 </r>
       <r>    3.5212    0.0000 </r>
       <r>    4.1430    0.0000 </r>
       <r>    4.4724    0.0000 </r>
       <r>    4.6559    0.0000 </r>
       <r>    4.8691    0.0000 </r>
       <r>    5.0451    0.0000 </r>
       <r>    5.2036    0.0000 </r>
       <r>    5.3623    0.0000 </r>
       <r>    5.7538    0.0000 </r>
       <r>    5.8581    0.0000 </r>
       <r>    5.9057    0.0000 </r>
       <r>    6.2357    0.0000 </r>
       <r>    6.2929    0.0000 </r>
       <r>    6.5116    0.0000 </r>
       <r>    6.6362    0.0000 </r>
       <r>    6.7325    0.0000 </r>
       <r>    6.7773    0.0000 </r>
       <r>    6.9441    0.0000 </r>
      </set>
      <set comment="kpoint 3">
       <r>  -13.8159    1.0000 </r>
       <r>   -8.5877    1.0000 </r>
       <r>   -7.7668    1.0000 </r>
       <r>   -6.7213    1.0000 </r>
       <r>   -6.3660    1.0000 </r>
       <r>   -5.5151    1.0000 </r>
       <r>   -5.4420    1.0000 </r>
       <r>   -5.3570    1.0000 </r>
       <r>   -5.3429    1.0000 </r>
       <r>   -5.2647    1.0000 </r>
       <r>   -5.2142    1.0000 </r>
       <r>   -5.1838    1.0000 </r>
       <r>   -5.1800    1.0000 </r>
       <r>   -4.9163    1.0000 </r>
       <r>   -4.7637    1.0000 </r>
       <r>   -4.7212    1.0000 </r>
       <r>   -4.6900    1.0000 </r>
       <r>   -4.6769    1.0000 </r>
       <r>   -4.6761    1.0000 </r>
       <r>   -4.4534    1.0000 </r>
       <r>   -4.4158    1.0000 </r>
       <r>   -4.3425    1.0000 </r>
       <r>   -4.2428    1.0000 </r>
       <r>   -4.2117    1.0000 </r>
       <r>   -4.1992    1.0000 </r>
       <r>   -4.1393    1.0000 </r>
       <r>   -4.0690    1.0000 </r>
       <r>   -4.0347    1.0000 </r>
       <r>   -3.9979    1.0000 </r>
       <r>   -3.9363    1.0000 </r>
       <r>   -3.9145    1.0000 </r>
       <r>   -3.8612    1.0000 </r>
       <r>   -3.8564    1.0000 </r>
       <r>   -3.8440    1.0000 </r>
       <r>   -3.8034    1.0000 </r>
       <r>   -3.7906    1.0000 </r>
       <r>   -3.7543    1.0000 </r>
       <r>   -3.7455    1.0000 </r>
       <r>   -3.7317    1.0000 </r>
       <r>   -3.7242    1.0000 </r>
       <r>   -3.6565    1.0000 </r>
       <r>   -3.5989    1.0000 </r>
       <r>   -3.5604    1.0000 </r>
       <r>   -3.5261    1.0000 </r>
       <r>   -3.3312    1.0000 </r>
       <r>   -3.2242    1.0000 </r>
       <r>   -3.1407    1.0000 </r>
       <r>   -3.1118    1.0000 </r>
       <r>   -3.0996    1.0000 </r>
       <r>   -3.0991    1.0000 </r>
       <r>   -3.0800    1.0000 </r>
       <r>   -3.0264    1.0000 </r>
       <r>   -3.0007    1.0000 </r>
       <r>   -2.9732    1.0000 </r>
       <r>   -2.9061    1.0000 </r>
       <r>   -2.8304    1.0000 </r>
       <r>   -2.8050    1.0000 </r>
       <r>   -2.7777    1.0000 </r>
       <r>   -2.6526    1.0000 </r>
       <r>   -2.5581    1.0000 </r>
       <r>   -2.3556    1.0000 </r>
       <r>   -2.3081    1.0000 </r>
       <r>   -2.2722    1.0000 </r>
       <r>   -2.2473    1.0000 </r>
       <r>   -2.2440    1.0000 </r>
       <r>   -2.2090    1.0000 </r>
       <r>   -2.1846    1.0000 </r>
       <r>   -2.1592    1.0000 </r>
       <r>   -2.1561    1.0000 </r>
       <r>   -2.1386    1.0000 </r>
       <r>   -2.1348    1.0000 </r>
       <r>   -2.1035    1.0000 </r>
       <r>   -2.0657    1.0000 </r>
       <r>   -2.0305    1.0000 </r>
       <r>   -2.0201    1.0000 </r>
       <r>   -1.9982    1.0000 </r>
       <r>   -1.9608    1.0000 </r>
       <r>   -1.9355    1.0000 </r>
       <r>   -1.9320    1.0000 </r>
       <r>   -1.8989    1.0000 </r>
       <r>   -1.8736    1.0000 </r>
       <r>   -1.8575    1.0000 </r>
       <r>   -1.8493    1.0000 </r>
       <r>   -1.8257    1.0000 </r>
       <r>   -1.7589    1.0000 </r>
       <r>   -1.7513    1.0000 </r>
       <r>   -1.7299    1.0000 </r>
       <r>   -1.6893    1.0000 </r>
       <r>   -1.6264    1.0000 </r>
       <r>   -1.5968    1.0000 </r>
       <r>   -1.5855    1.0000 </r>
       <r>   -1.5571    1.0000 </r>
       <r>   -1.5482    1.0000 </r>
       <r>   -1.5265    1.0000 </r>
       <r>   -1.4842    1.0000 </r>
       <r>   -1.4833    1.0000 </r>
       <r>   -1.4545    1.0000 </r>
       <r>   -1.4389    1.0000 </r>
       <r>   -1.4257    1.0000 </r>
       <r>   -1.4042    1.0000 </r>
       <r>   -1.3753    1.0000 </r>
       <r>   -1.3732    1.0000 </r>
       <r>   -1.3460    1.0000 </r>
       <r>   -1.3434    1.0000 </r>
       <r>   -1.2474    1.0000 </r>
       <r>   -1.2284    1.0000 </r>
       <r>   -1.2067    1.0000 </r>
       <r>   -1.2060    1.0000 </r>
       <r>   -1.1976    1.0000 </r>
       <r>   -1.1806    1.0000 </r>
       <r>   -1.1047    1.0000 </r>
       <r>   -1.0290    1.0000 </r>
       <r>   -1.0008    1.0000 </r>
       <r>   -0.9603    1.0000 </r>
       <r>   -0.8585    1.0000 </r>
       <r>   -0.8190    1.0000 </r>
       <r>   -0.7314    1.0000 </r>
       <r>   -0.7055    1.0000 </r>
       <r>   -0.6663    1.0000 </r>
       <r>   -0.6502    1.0000 </r>
       <r>   -0.6188    1.0000 </r>
       <r>   -0.5917    1.0000 </r>
       <r>   -0.5651    1.0000 </r>
       <r>   -0.5560    1.0000 </r>
       <r>   -0.4757    1.0000 </r>
       <r>   -0.4654    1.0000 </r>
       <r>   -0.4498    1.0000 </r>
       <r>   -0.3711    1.0000 </r>
       <r>   -0.3364    1.0000 </r>
       <r>   -0.2600    1.0000 </r>
       <r>   -0.2173    1.0000 </r>
       <r>   -0.1808    1.0000 </r>
       <r>   -0.1405    1.0000 </r>
       <r>   -0.0516    1.0000 </r>
       <r>   -0.0393    1.0000 </r>
       <r>   -0.0327    1.0000 </r>
       <r>   -0.0287    1.0000 </r>
       <r>   -0.0044    1.0000 </r>
       <r>    0.0022    1.0000 </r>
       <r>    0.0663    1.0000 </r>
       <r>    0.0711    1.0000 </r>
       <r>    0.1048    1.0000 </r>
       <r>    0.1703    1.0000 </r>
       <r>    0.1882    1.0000 </r>
       <r>    0.2417    1.0000 </r>
       <r>    0.2711    1.0000 </r>
       <r>    0.3101    1.0000 </r>
       <r>    0.3126    1.0000 </r>
       <r>    0.3488    1.0000 </r>
       <r>    0.3817    1.0000 </r>
       <r>    0.3954    1.0000 </r>
       <r>    0.5041    0.9999 </r>
       <r>    0.5195    0.9999 </r>
       <r>    0.5305    0.9999 </r>
       <r>    0.5364    0.9999 </r>
       <r>    0.5472    0.9999 </r>
       <r>    0.6042    0.9998 </r>
       <r>    0.6137    0.9998 </r>
       <r>    0.6263    0.9998 </r>
       <r>    0.6795    0.9997 </r>
       <r>    0.6856    0.9996 </r>
       <r>    0.7128    0.9995 </r>
       <r>    0.7169    0.9995 </r>
       <r>    0.7479    0.9993 </r>
       <r>    0.7739    0.9991 </r>
       <r>    0.7899    0.9990 </r>
       <r>    0.8188    0.9986 </r>
       <r>    0.8349    0.9984 </r>
       <r>    0.8593    0.9979 </r>
       <r>    0.8842    0.9973 </r>
       <r>    0.9003    0.9968 </r>
       <r>    0.9063    0.9967 </r>
       <r>    0.9277    0.9959 </r>
       <r>    0.9329    0.9956 </r>
       <r>    0.9400    0.9953 </r>
       <r>    0.9953    0.9919 </r>
       <r>    1.0068    0.9909 </r>
       <r>    1.0530    0.9857 </r>
       <r>    1.0782    0.9816 </r>
       <r>    1.0945    0.9784 </r>
       <r>    1.1147    0.9737 </r>
       <r>    1.1265    0.9705 </r>
       <r>    1.1699    0.9553 </r>
       <r>    1.1760    0.9526 </r>
       <r>    1.1792    0.9511 </r>
       <r>    1.2125    0.9330 </r>
       <r>    1.2206    0.9278 </r>
       <r>    1.2553    0.9008 </r>
       <r>    1.2611    0.8955 </r>
       <r>    1.2765    0.8802 </r>
       <r>    1.2899    0.8654 </r>
       <r>    1.3000    0.8531 </r>
       <r>    1.4062    0.6677 </r>
       <r>    1.4234    0.6285 </r>
       <r>    1.4854    0.4763 </r>
       <r>    1.5208    0.3897 </r>
       <r>    1.5270    0.3751 </r>
       <r>    1.5489    0.3253 </r>
       <r>    1.5823    0.2566 </r>
       <r>    1.5885    0.2450 </r>
       <r>    1.9494    0.0087 </r>
       <r>    2.0164    0.0045 </r>
       <r>    2.2154    0.0006 </r>
       <r>    2.3412    0.0002 </r>
       <r>    2.3869    0.0001 </r>
       <r>    2.5255    0.0000 </r>
       <r>    2.8548    0.0000 </r>
       <r>    3.5457    0.0000 </r>
       <r>    4.1339    0.0000 </r>
       <r>    4.4690    0.0000 </r>
       <r>    4.6504    0.0000 </r>
       <r>    4.8699    0.0000 </r>
       <r>    5.0966    0.0000 </r>
       <r>    5.1226    0.0000 </r>
       <r>    5.3900    0.0000 </r>
       <r>    5.7386    0.0000 </r>
       <r>    5.8415    0.0000 </r>
       <r>    5.9254    0.0000 </r>
       <r>    6.2237    0.0000 </r>
       <r>    6.3568    0.0000 </r>
       <r>    6.4499    0.0000 </r>
       <r>    6.6777    0.0000 </r>
       <r>    6.7361    0.0000 </r>
       <r>    6.7536    0.0000 </r>
       <r>    6.8443    0.0000 </r>
      </set>
      <set comment="kpoint 4">
       <r>  -13.8152    1.0000 </r>
       <r>   -8.5873    1.0000 </r>
       <r>   -7.6121    1.0000 </r>
       <r>   -6.6700    1.0000 </r>
       <r>   -6.2634    1.0000 </r>
       <r>   -5.8616    1.0000 </r>
       <r>   -5.6409    1.0000 </r>
       <r>   -5.3017    1.0000 </r>
       <r>   -5.2157    1.0000 </r>
       <r>   -5.1292    1.0000 </r>
       <r>   -5.1151    1.0000 </r>
       <r>   -5.0534    1.0000 </r>
       <r>   -5.0158    1.0000 </r>
       <r>   -4.9608    1.0000 </r>
       <r>   -4.7857    1.0000 </r>
       <r>   -4.7589    1.0000 </r>
       <r>   -4.6842    1.0000 </r>
       <r>   -4.6099    1.0000 </r>
       <r>   -4.5541    1.0000 </r>
       <r>   -4.4547    1.0000 </r>
       <r>   -4.3982    1.0000 </r>
       <r>   -4.2713    1.0000 </r>
       <r>   -4.2346    1.0000 </r>
       <r>   -4.1912    1.0000 </r>
       <r>   -4.1653    1.0000 </r>
       <r>   -4.1138    1.0000 </r>
       <r>   -4.0842    1.0000 </r>
       <r>   -4.0388    1.0000 </r>
       <r>   -4.0009    1.0000 </r>
       <r>   -3.9882    1.0000 </r>
       <r>   -3.9501    1.0000 </r>
       <r>   -3.9374    1.0000 </r>
       <r>   -3.9014    1.0000 </r>
       <r>   -3.8700    1.0000 </r>
       <r>   -3.8589    1.0000 </r>
       <r>   -3.8215    1.0000 </r>
       <r>   -3.7824    1.0000 </r>
       <r>   -3.7301    1.0000 </r>
       <r>   -3.6350    1.0000 </r>
       <r>   -3.5717    1.0000 </r>
       <r>   -3.5614    1.0000 </r>
       <r>   -3.5247    1.0000 </r>
       <r>   -3.4931    1.0000 </r>
       <r>   -3.4223    1.0000 </r>
       <r>   -3.3602    1.0000 </r>
       <r>   -3.2974    1.0000 </r>
       <r>   -3.2188    1.0000 </r>
       <r>   -3.1916    1.0000 </r>
       <r>   -3.1504    1.0000 </r>
       <r>   -3.1266    1.0000 </r>
       <r>   -3.0823    1.0000 </r>
       <r>   -3.0121    1.0000 </r>
       <r>   -2.9573    1.0000 </r>
       <r>   -2.9427    1.0000 </r>
       <r>   -2.8821    1.0000 </r>
       <r>   -2.8439    1.0000 </r>
       <r>   -2.8154    1.0000 </r>
       <r>   -2.7505    1.0000 </r>
       <r>   -2.7044    1.0000 </r>
       <r>   -2.6272    1.0000 </r>
       <r>   -2.5835    1.0000 </r>
       <r>   -2.5491    1.0000 </r>
       <r>   -2.4183    1.0000 </r>
       <r>   -2.3654    1.0000 </r>
       <r>   -2.3464    1.0000 </r>
       <r>   -2.3193    1.0000 </r>
       <r>   -2.3082    1.0000 </r>
       <r>   -2.2780    1.0000 </r>
       <r>   -2.2096    1.0000 </r>
       <r>   -2.1998    1.0000 </r>
       <r>   -2.1721    1.0000 </r>
       <r>   -2.1315    1.0000 </r>
       <r>   -2.0897    1.0000 </r>
       <r>   -2.0849    1.0000 </r>
       <r>   -2.0565    1.0000 </r>
       <r>   -2.0477    1.0000 </r>
       <r>   -2.0192    1.0000 </r>
       <r>   -2.0012    1.0000 </r>
       <r>   -1.9676    1.0000 </r>
       <r>   -1.8735    1.0000 </r>
       <r>   -1.8564    1.0000 </r>
       <r>   -1.8411    1.0000 </r>
       <r>   -1.8263    1.0000 </r>
       <r>   -1.7828    1.0000 </r>
       <r>   -1.7558    1.0000 </r>
       <r>   -1.7446    1.0000 </r>
       <r>   -1.7085    1.0000 </r>
       <r>   -1.6839    1.0000 </r>
       <r>   -1.6700    1.0000 </r>
       <r>   -1.6523    1.0000 </r>
       <r>   -1.6153    1.0000 </r>
       <r>   -1.5819    1.0000 </r>
       <r>   -1.5694    1.0000 </r>
       <r>   -1.5513    1.0000 </r>
       <r>   -1.5294    1.0000 </r>
       <r>   -1.5127    1.0000 </r>
       <r>   -1.4894    1.0000 </r>
       <r>   -1.4722    1.0000 </r>
       <r>   -1.4611    1.0000 </r>
       <r>   -1.4271    1.0000 </r>
       <r>   -1.3972    1.0000 </r>
       <r>   -1.3765    1.0000 </r>
       <r>   -1.3670    1.0000 </r>
       <r>   -1.3281    1.0000 </r>
       <r>   -1.3181    1.0000 </r>
       <r>   -1.2978    1.0000 </r>
       <r>   -1.2768    1.0000 </r>
       <r>   -1.2379    1.0000 </r>
       <r>   -1.2046    1.0000 </r>
       <r>   -1.1660    1.0000 </r>
       <r>   -1.1482    1.0000 </r>
       <r>   -1.1244    1.0000 </r>
       <r>   -1.0879    1.0000 </r>
       <r>   -1.0378    1.0000 </r>
       <r>   -0.9979    1.0000 </r>
       <r>   -0.9198    1.0000 </r>
       <r>   -0.9041    1.0000 </r>
       <r>   -0.8763    1.0000 </r>
       <r>   -0.7821    1.0000 </r>
       <r>   -0.7005    1.0000 </r>
       <r>   -0.6829    1.0000 </r>
       <r>   -0.6508    1.0000 </r>
       <r>   -0.6155    1.0000 </r>
       <r>   -0.5719    1.0000 </r>
       <r>   -0.5464    1.0000 </r>
       <r>   -0.5158    1.0000 </r>
       <r>   -0.4805    1.0000 </r>
       <r>   -0.4244    1.0000 </r>
       <r>   -0.3890    1.0000 </r>
       <r>   -0.3455    1.0000 </r>
       <r>   -0.3244    1.0000 </r>
       <r>   -0.2207    1.0000 </r>
       <r>   -0.1635    1.0000 </r>
       <r>   -0.1503    1.0000 </r>
       <r>   -0.1378    1.0000 </r>
       <r>   -0.1103    1.0000 </r>
       <r>   -0.0851    1.0000 </r>
       <r>   -0.0437    1.0000 </r>
       <r>   -0.0204    1.0000 </r>
       <r>    0.0142    1.0000 </r>
       <r>    0.0391    1.0000 </r>
       <r>    0.1219    1.0000 </r>
       <r>    0.1478    1.0000 </r>
       <r>    0.1727    1.0000 </r>
       <r>    0.2024    1.0000 </r>
       <r>    0.2100    1.0000 </r>
       <r>    0.2328    1.0000 </r>
       <r>    0.2823    1.0000 </r>
       <r>    0.2960    1.0000 </r>
       <r>    0.3109    1.0000 </r>
       <r>    0.3414    1.0000 </r>
       <r>    0.3681    1.0000 </r>
       <r>    0.4086    1.0000 </r>
       <r>    0.4217    1.0000 </r>
       <r>    0.4678    1.0000 </r>
       <r>    0.4880    0.9999 </r>
       <r>    0.5134    0.9999 </r>
       <r>    0.5485    0.9999 </r>
       <r>    0.5763    0.9999 </r>
       <r>    0.6430    0.9998 </r>
       <r>    0.7029    0.9996 </r>
       <r>    0.7230    0.9995 </r>
       <r>    0.7719    0.9991 </r>
       <r>    0.8107    0.9987 </r>
       <r>    0.8225    0.9986 </r>
       <r>    0.8586    0.9979 </r>
       <r>    0.8941    0.9970 </r>
       <r>    0.9247    0.9960 </r>
       <r>    0.9364    0.9955 </r>
       <r>    0.9777    0.9932 </r>
       <r>    1.0165    0.9900 </r>
       <r>    1.0467    0.9865 </r>
       <r>    1.0859    0.9802 </r>
       <r>    1.1094    0.9751 </r>
       <r>    1.1304    0.9694 </r>
       <r>    1.1445    0.9649 </r>
       <r>    1.1747    0.9531 </r>
       <r>    1.2054    0.9374 </r>
       <r>    1.2249    0.9249 </r>
       <r>    1.2542    0.9018 </r>
       <r>    1.2827    0.8735 </r>
       <r>    1.2889    0.8666 </r>
       <r>    1.3273    0.8155 </r>
       <r>    1.3421    0.7923 </r>
       <r>    1.3823    0.7184 </r>
       <r>    1.4077    0.6643 </r>
       <r>    1.4160    0.6456 </r>
       <r>    1.4629    0.5325 </r>
       <r>    1.4683    0.5193 </r>
       <r>    1.4833    0.4816 </r>
       <r>    1.5008    0.4383 </r>
       <r>    1.5448    0.3344 </r>
       <r>    1.5638    0.2935 </r>
       <r>    1.6214    0.1893 </r>
       <r>    1.6462    0.1542 </r>
       <r>    1.6828    0.1122 </r>
       <r>    1.7207    0.0796 </r>
       <r>    1.7699    0.0502 </r>
       <r>    1.9280    0.0108 </r>
       <r>    1.9549    0.0083 </r>
       <r>    2.0184    0.0044 </r>
       <r>    2.1272    0.0015 </r>
       <r>    2.3696    0.0001 </r>
       <r>    2.6157    0.0000 </r>
       <r>    2.8744    0.0000 </r>
       <r>    3.0188    0.0000 </r>
       <r>    3.1214    0.0000 </r>
       <r>    3.5901    0.0000 </r>
       <r>    4.0125    0.0000 </r>
       <r>    4.2742    0.0000 </r>
       <r>    4.6796    0.0000 </r>
       <r>    4.8136    0.0000 </r>
       <r>    5.0238    0.0000 </r>
       <r>    5.1011    0.0000 </r>
       <r>    5.3608    0.0000 </r>
       <r>    5.4670    0.0000 </r>
[...]
   <v name="MAGDIPOLOUT">      0.00000000      0.00000000      0.00000000</v>
  </separator>
  <dos>
   <i name="efermi">      1.47597054 </i>
   <total>
    <array>
     <dimension dim="1">gridpoints</dimension>
     <dimension dim="2">spin</dimension>
     <field>energy</field>
     <field>total</field>
     <field>integrated</field>
     <set>
      <set comment="spin 1">
       <r>   -14.8789     0.0000     0.0000 </r>
       <r>   -14.8010     0.0000     0.0000 </r>
       <r>   -14.7230     0.0000     0.0000 </r>
       <r>   -14.6451     0.0064     0.0005 </r>
       <r>   -14.5671     0.0075     0.0011 </r>
       <r>   -14.4892     0.0163     0.0024 </r>
       <r>   -14.4112     0.0355     0.0051 </r>
       <r>   -14.3332     0.0771     0.0111 </r>
       <r>   -14.2553     0.1665     0.0241 </r>
       <r>   -14.1773     0.3557     0.0518 </r>
       <r>   -14.0994     0.7420     0.1097 </r>
       <r>   -14.0214     1.4744     0.2246 </r>
       <r>   -13.9435     2.6661     0.4325 </r>
       <r>   -13.8655     4.0890     0.7512 </r>
       <r>   -13.7876     4.9210     1.1348 </r>
       <r>   -13.7096     4.4519     1.4819 </r>
       <r>   -13.6316     3.1009     1.7236 </r>
       <r>   -13.5537     1.7879     1.8630 </r>
       <r>   -13.4757     0.9204     1.9348 </r>
       <r>   -13.3978     0.4462     1.9695 </r>
       <r>   -13.3198     0.2101     1.9859 </r>
       <r>   -13.2419     0.0975     1.9935 </r>
       <r>   -13.1639     0.0450     1.9970 </r>
       <r>   -13.0860     0.0207     1.9986 </r>
       <r>   -13.0080     0.0000     2.0000 </r>
       <r>   -12.9300     0.0000     2.0000 </r>
       <r>   -12.8521     0.0000     2.0000 </r>
       <r>   -12.7741     0.0000     2.0000 </r>
       <r>   -12.6962     0.0000     2.0000 </r>
       <r>   -12.6182     0.0000     2.0000 </r>
       <r>   -12.5403     0.0000     2.0000 </r>
       <r>   -12.4623     0.0000     2.0000 </r>
       <r>   -12.3843     0.0000     2.0000 </r>
       <r>   -12.3064     0.0000     2.0000 </r>
       <r>   -12.2284     0.0000     2.0000 </r>
       <r>   -12.1505     0.0000     2.0000 </r>
       <r>   -12.0725     0.0000     2.0000 </r>
       <r>   -11.9946     0.0000     2.0000 </r>
       <r>   -11.9166     0.0000     2.0000 </r>
       <r>   -11.8387     0.0000     2.0000 </r>
       <r>   -11.7607     0.0000     2.0000 </r>
       <r>   -11.6827     0.0000     2.0000 </r>
       <r>   -11.6048     0.0000     2.0000 </r>
       <r>   -11.5268     0.0000     2.0000 </r>
       <r>   -11.4489     0.0000     2.0000 </r>
       <r>   -11.3709     0.0000     2.0000 </r>
       <r>   -11.2930     0.0000     2.0000 </r>
       <r>   -11.2150     0.0000     2.0000 </r>
       <r>   -11.1370     0.0000     2.0000 </r>
       <r>   -11.0591     0.0000     2.0000 </r>
       <r>   -10.9811     0.0000     2.0000 </r>
       <r>   -10.9032     0.0000     2.0000 </r>
       <r>   -10.8252     0.0000     2.0000 </r>
       <r>   -10.7473     0.0000     2.0000 </r>
       <r>   -10.6693     0.0000     2.0000 </r>
       <r>   -10.5914     0.0000     2.0000 </r>
       <r>   -10.5134     0.0000     2.0000 </r>
       <r>   -10.4354     0.0000     2.0000 </r>
       <r>   -10.3575     0.0000     2.0000 </r>
       <r>   -10.2795     0.0000     2.0000 </r>
       <r>   -10.2016     0.0000     2.0000 </r>
       <r>   -10.1236     0.0000     2.0000 </r>
       <r>   -10.0457     0.0000     2.0000 </r>
       <r>    -9.9677     0.0000     2.0000 </r>
       <r>    -9.8898     0.0000     2.0000 </r>
       <r>    -9.8118     0.0000     2.0000 </r>
       <r>    -9.7338     0.0000     2.0000 </r>
       <r>    -9.6559     0.0000     2.0000 </r>
       <r>    -9.5779     0.0000     2.0000 </r>
       <r>    -9.5000     0.0000     2.0000 </r>
       <r>    -9.4220     0.0064     2.0005 </r>
       <r>    -9.3441     0.0075     2.0011 </r>
       <r>    -9.2661     0.0163     2.0024 </r>
       <r>    -9.1881     0.0356     2.0051 </r>
       <r>    -9.1102     0.0772     2.0111 </r>
       <r>    -9.0322     0.1667     2.0241 </r>
       <r>    -8.9543     0.3560     2.0519 </r>
       <r>    -8.8763     0.7426     2.1098 </r>
       <r>    -8.7984     1.4753     2.2248 </r>
       <r>    -8.7204     2.6668     2.4327 </r>
       <r>    -8.6425     4.0888     2.7514 </r>
       <r>    -8.5645     4.9197     3.1350 </r>
       <r>    -8.4865     4.4516     3.4820 </r>
       <r>    -8.4086     3.1036     3.7239 </r>
       <r>    -8.3306     1.7945     3.8638 </r>
       <r>    -8.2527     0.9339     3.9366 </r>
       <r>    -8.1747     0.4755     3.9737 </r>
       <r>    -8.0968     0.2725     3.9949 </r>
       <r>    -8.0188     0.2281     4.0127 </r>
       <r>    -7.9409     0.3081     4.0367 </r>
       <r>    -7.8629     0.5136     4.0768 </r>
       <r>    -7.7849     0.8239     4.1423 </r>
       <r>    -7.7070     1.2000     4.2359 </r>
       <r>    -7.6290     1.5295     4.3551 </r>
       <r>    -7.5511     1.7543     4.4919 </r>
       <r>    -7.4731     1.8782     4.6383 </r>
       <r>    -7.3952     1.9633     4.7914 </r>
       <r>    -7.3172     2.0681     4.9526 </r>
       <r>    -7.2392     2.1649     5.1214 </r>
       <r>    -7.1613     2.2134     5.2939 </r>
       <r>    -7.0833     2.2866     5.4722 </r>
       <r>    -7.0054     2.5091     5.6678 </r>
       <r>    -6.9274     2.9952     5.9013 </r>
       <r>    -6.8495     3.8169     6.1989 </r>
       <r>    -6.7715     4.9348     6.5837 </r>
       <r>    -6.6936     6.1039     7.0596 </r>
       <r>    -6.6156     6.7971     7.5896 </r>
       <r>    -6.5376     6.6545     8.1083 </r>
       <r>    -6.4597     6.0077     8.5769 </r>
       <r>    -6.3817     5.5003     9.0057 </r>
       <r>    -6.3038     5.3494     9.4228 </r>
       <r>    -6.2258     5.3243     9.8380 </r>
       <r>    -6.1479     5.2397    10.2465 </r>
       <r>    -6.0699     5.1683    10.6495 </r>
       <r>    -5.9920     5.1976    11.0548 </r>
       <r>    -5.9140     5.3222    11.4699 </r>
       <r>    -5.8360     5.5852    11.9059 </r>
       <r>    -5.7581     6.0224    12.3757 </r>
       <r>    -5.6801     6.5173    12.8839 </r>
       <r>    -5.6022     6.9934    13.4292 </r>
       <r>    -5.5242     7.5732    14.0199 </r>
       <r>    -5.4463     8.4868    14.6818 </r>
       <r>    -5.3683     9.9524    15.4578 </r>
       <r>    -5.2903    12.1063    16.4017 </r>
       <r>    -5.2124    14.8121    17.5566 </r>
       <r>    -5.1344    17.6387    18.9319 </r>
       <r>    -5.0565    20.3532    20.5187 </r>
       <r>    -4.9785    23.0155    22.3131 </r>
       <r>    -4.9006    25.6501    24.3130 </r>
       <r>    -4.8226    28.0912    26.5031 </r>
       <r>    -4.7447    30.0650    28.8472 </r>
       <r>    -4.6667    31.4873    31.3020 </r>
       <r>    -4.5887    32.7295    33.8538 </r>
       <r>    -4.5108    34.5434    36.5469 </r>
       <r>    -4.4328    37.4481    39.4668 </r>
       <r>    -4.3549    41.1184    42.6731 </r>
       <r>    -4.2769    44.7496    46.1623 </r>
       <r>    -4.1990    47.7673    49.8869 </r>
       <r>    -4.1210    49.8374    53.7731 </r>
       <r>    -4.0431    50.7407    57.7297 </r>
       <r>    -3.9651    50.4978    61.6677 </r>
       <r>    -3.8871    49.4536    65.5241 </r>
       <r>    -3.8092    47.9977    69.2672 </r>
       <r>    -3.7312    46.1848    72.8688 </r>
       <r>    -3.6533    43.9188    76.2937 </r>
       <r>    -3.5753    41.5304    79.5329 </r>
       <r>    -3.4974    39.6822    82.6283 </r>
       <r>    -3.4194    38.9872    85.6695 </r>
       <r>    -3.3414    39.7861    88.7731 </r>
       <r>    -3.2635    41.7767    92.0319 </r>
       <r>    -3.1855    44.0351    95.4669 </r>
       <r>    -3.1076    45.7503    99.0356 </r>
       <r>    -3.0296    46.7493   102.6815 </r>
       <r>    -2.9517    47.4423   106.3822 </r>
       <r>    -2.8737    48.2804   110.1477 </r>
       <r>    -2.7958    49.1229   113.9786 </r>
       <r>    -2.7178    49.4285   117.8335 </r>
       <r>    -2.6398    48.8877   121.6459 </r>
       <r>    -2.5619    47.8286   125.3755 </r>
       <r>    -2.4839    47.3316   129.0671 </r>
       <r>    -2.4060    48.5901   132.8568 </r>
       <r>    -2.3280    51.5977   136.8810 </r>
       <r>    -2.2501    55.4388   141.2048 </r>
       <r>    -2.1721    59.4328   145.8397 </r>
       <r>    -2.0941    63.0422   150.7560 </r>
       <r>    -2.0162    65.7348   155.8825 </r>
       <r>    -1.9382    67.7508   161.1662 </r>
       <r>    -1.8603    70.0091   166.6259 </r>
       <r>    -1.7823    72.7414   172.2985 </r>
       <r>    -1.7044    75.2437   178.1658 </r>
       <r>    -1.6264    76.9725   184.1676 </r>
       <r>    -1.5485    77.9415   190.2461 </r>
       <r>    -1.4705    78.2336   196.3469 </r>
       <r>    -1.3925    77.6294   202.4008 </r>
       <r>    -1.3146    75.3345   208.2762 </r>
       <r>    -1.2366    70.7652   213.7958 </r>
       <r>    -1.1587    64.6403   218.8372 </r>
       <r>    -1.0807    58.4327   223.3950 </r>
       <r>    -1.0028    53.2429   227.5486 </r>
       <r>    -0.9248    49.6588   231.4230 </r>
       <r>    -0.8469    48.4128   235.1997 </r>
       <r>    -0.7689    50.0285   239.1031 </r>
       <r>    -0.6909    53.8452   243.3037 </r>
       <r>    -0.6130    57.8097   247.8133 </r>
       <r>    -0.5350    59.6333   252.4658 </r>
       <r>    -0.4571    58.4531   257.0255 </r>
       <r>    -0.3791    55.4406   261.3503 </r>
       <r>    -0.3012    52.5932   265.4519 </r>
       <r>    -0.2232    51.0462   269.4336 </r>
       <r>    -0.1452    50.9525   273.4074 </r>
       <r>    -0.0673    52.0328   277.4652 </r>
       <r>     0.0107    53.9273   281.6706 </r>
       <r>     0.0886    56.3162   286.0625 </r>
       <r>     0.1666    58.9057   290.6571 </r>
       <r>     0.2445    61.2130   295.4322 </r>
       <r>     0.3225    62.5595   300.3119 </r>
       <r>     0.4004    62.2498   305.1664 </r>
       <r>     0.4784    60.1186   309.8551 </r>
       <r>     0.5564    56.9816   314.2989 </r>
       <r>     0.6343    54.1971   318.5258 </r>
       <r>     0.7123    52.8136   322.6447 </r>
       <r>     0.7902    52.8457   326.7666 </r>
       <r>     0.8682    53.6082   330.9477 </r>
       <r>     0.9461    54.7966   335.2217 </r>
       <r>     1.0241    56.9186   339.6614 </r>
       <r>     1.1020    60.4472   344.3763 </r>
       <r>     1.1800    64.8494   349.4346 </r>
       <r>     1.2580    68.7864   354.7993 </r>
       <r>     1.3359    70.9274   360.3310 </r>
       <r>     1.4139    70.3785   365.8194 </r>
       <r>     1.4918    66.7908   371.0277 </r>
       <r>     1.5698    60.7754   375.7676 </r>
       <r>     1.6477    53.6374   379.9511 </r>
       <r>     1.7257    46.1173   383.5485 </r>
       <r>     1.8037    38.3550   386.5404 </r>
       <r>     1.8816    31.0060   388.9596 </r>
       <r>     1.9596    25.0576   390.9156 </r>
       <r>     2.0375    20.7189   392.5337 </r>
       <r>     2.1155    17.5486   393.9050 </r>
       <r>     2.1934    15.1842   395.0917 </r>
       <r>     2.2714    13.4814   396.1461 </r>
       <r>     2.3493    12.5202   397.1246 </r>
       <r>     2.4273    12.2488   398.0814 </r>
       <r>     2.5053    12.2154   399.0357 </r>
       <r>     2.5832    12.0135   399.9742 </r>
       <r>     2.6612    11.6883   400.8861 </r>
       <r>     2.7391    11.5401   401.7865 </r>
       <r>     2.8171    11.8121   402.7082 </r>
       <r>     2.8950    12.4067   403.6759 </r>
       <r>     2.9730    12.8825   404.6808 </r>
       <r>     3.0509    12.9306   405.6894 </r>
       <r>     3.1289    12.6813   406.6781 </r>
       <r>     3.2069    12.3532   407.6415 </r>
       <r>     3.2848    12.0466   408.5813 </r>
       <r>     3.3628    11.8109   409.5024 </r>
       <r>     3.4407    11.5858   410.4061 </r>
       <r>     3.5187    11.3392   411.2906 </r>
       <r>     3.5966    11.1931   412.1635 </r>
       <r>     3.6746    11.3351   413.0475 </r>
       <r>     3.7526    11.7785   413.9665 </r>
       <r>     3.8305    12.2864   414.9248 </r>
       <r>     3.9085    12.5026   415.8998 </r>
       <r>     3.9864    12.2787   416.8576 </r>
       <r>     4.0644    11.8110   417.7787 </r>
       <r>     4.1423    11.4430   418.6713 </r>
       <r>     4.2203    11.3762   419.5586 </r>
       <r>     4.2982    11.4940   420.4550 </r>
       <r>     4.3762    11.5021   421.3521 </r>
       <r>     4.4542    11.2698   422.2310 </r>
       <r>     4.5321    11.0742   423.0947 </r>
       <r>     4.6101    11.2346   423.9710 </r>
       <r>     4.6880    11.6617   424.8809 </r>
       <r>     4.7660    12.0062   425.8172 </r>
       <r>     4.8439    12.0554   426.7576 </r>
       <r>     4.9219    11.9134   427.6866 </r>
       <r>     4.9999    11.7597   428.6038 </r>
       <r>     5.0778    11.6171   429.5099 </r>
       <r>     5.1558    11.4593   430.4036 </r>
       <r>     5.2337    11.2793   431.2835 </r>
       <r>     5.3117    11.1032   432.1494 </r>
       <r>     5.3896    11.0029   433.0075 </r>
       <r>     5.4676    10.9816   433.8642 </r>
       <r>     5.5455    11.0404   434.7253 </r>
       <r>     5.6235    11.1518   435.5953 </r>
       <r>     5.7015    11.2705   436.4743 </r>
       <r>     5.7794    11.4554   437.3678 </r>
       <r>     5.8574    11.7679   438.2856 </r>
       <r>     5.9353    12.0526   439.2256 </r>
       <r>     6.0133    12.0798   440.1678 </r>
       <r>     6.0912    11.8103   441.0888 </r>
       <r>     6.1692    11.3707   441.9758 </r>
       <r>     6.2471    10.9572   442.8303 </r>
       <r>     6.3251    10.7021   443.6650 </r>
       <r>     6.4031    10.5829   444.4904 </r>
       <r>     6.4810    10.3732   445.2996 </r>
       <r>     6.5590     9.8186   446.0654 </r>
       <r>     6.6369     8.9428   446.7630 </r>
       <r>     6.7149     8.0137   447.3883 </r>
       <r>     6.7928     7.2307   447.9524 </r>
       <r>     6.8708     6.5225   448.4613 </r>
       <r>     6.9488     5.6910   448.9054 </r>
       <r>     7.0267     4.6604   449.2691 </r>
       <r>     7.1047     3.5080   449.5430 </r>
       <r>     7.1826     2.3913   449.7297 </r>
       <r>     7.2606     1.4754   449.8453 </r>
       <r>     7.3385     0.8500   449.9120 </r>
       <r>     7.4165     0.4852   449.9502 </r>
       <r>     7.4944     0.2850   449.9727 </r>
       <r>     7.5724     0.1663   449.9859 </r>
       <r>     7.6504     0.0894   449.9932 </r>
       <r>     7.7283     0.0441   449.9968 </r>
       <r>     7.8063     0.0202   449.9986 </r>
       <r>     7.8842     0.0081   449.9995 </r>
       <r>     7.9622     0.0034   449.9998 </r>
       <r>     8.0401     0.0014   449.9999 </r>
       <r>     8.1181     0.0007   450.0000 </r>
       <r>     8.1960     0.0003   450.0000 </r>
       <r>     8.2740     0.0000   450.0000 </r>
       <r>     8.3520     0.0000   450.0000 </r>
       <r>     8.4299     0.0000   450.0000 </r>
       <r>     8.5079     0.0000   450.0000 </r>
      </set>
     </set>
    </array>
   </total>
  </dos>
 </calculation>
 <structure name="finalpos" >
  <crystal>
   <varray name="basis" >
    <v>       8.42164176       0.00000000       0.00000000 </v>
    <v>       4.21082088       7.29335571       0.00000000 </v>
    <v>       0.00000000       0.00000000      21.87624171 </v>
   </varray>
   <i name="volume">   1343.68315334 </i>
   <varray name="rec_basis" >
    <v>       0.11874169      -0.06855555       0.00000000 </v>
    <v>       0.00000000       0.13711110       0.00000000 </v>
    <v>       0.00000000       0.00000000       0.04571169 </v>
   </varray>
  </crystal>
  <varray name="positions" >
   <v>       0.00000000       0.00000000       0.34283768 </v>
   <v>       0.33333333       0.00000000       0.34283768 </v>
   <v>       0.66666667       0.00000000       0.34283768 </v>
   <v>       0.00000000       0.33333333       0.34283768 </v>
   <v>       0.33333333       0.33333333       0.34283768 </v>
   <v>       0.66666667       0.33333333       0.34283768 </v>
   <v>       0.00000000       0.66666667       0.34283768 </v>
   <v>       0.33333333       0.66666667       0.34283768 </v>
   <v>       0.66666667       0.66666667       0.34283768 </v>
   <v>       0.11111111       0.11111111       0.44761256 </v>
   <v>       0.44444444       0.11111111       0.44761256 </v>
   <v>       0.77777778       0.11111111       0.44761256 </v>
   <v>       0.11111111       0.44444444       0.44761256 </v>
   <v>       0.44444444       0.44444444       0.44761256 </v>
   <v>       0.77777778       0.44444444       0.44761256 </v>
   <v>       0.11111111       0.77777778       0.44761256 </v>
   <v>       0.44444444       0.77777778       0.44761256 </v>
   <v>       0.77777778       0.77777778       0.44761256 </v>
   <v>       0.88425364       0.22442670       0.55244905 </v>
   <v>       0.22037514       0.22537740       0.55266231 </v>
   <v>       0.55356433       0.22256263       0.55214259 </v>
   <v>       0.88614075       0.55637661       0.55115934 </v>
   <v>       0.22071967       0.55288914       0.55271045 </v>
   <v>       0.55416527       0.55477803       0.55170179 </v>
   <v>       0.88441851       0.88981885       0.55244345 </v>
   <v>       0.21879337       0.89011458       0.54957939 </v>
   <v>       0.55388861       0.89006082       0.55182025 </v>
   <v>       0.99833368       0.99918677       0.65626679 </v>
   <v>       0.32511129       0.99781399       0.65508055 </v>
   <v>       0.66841930       0.99401135       0.66103307 </v>
   <v>       0.99469208       0.33491963       0.65670818 </v>
   <v>       0.32407926       0.33653634       0.66334966 </v>
   <v>       0.66801121       0.33416489       0.66094572 </v>
   <v>       0.99526763       0.66743977       0.65682033 </v>
   <v>       0.32578457       0.67482079       0.65503296 </v>
   <v>       0.66275092       0.66707916       0.65653655 </v>
   <v>       0.52115895       0.15417498       0.73126460 </v>
   <v>       0.52154469       0.32035839       0.73128174 </v>
   <v>       0.47978989       0.09962517       0.76967703 </v>
   <v>       0.48082207       0.41613406       0.76969475 </v>
  </varray>
  <varray name="selective"  type="logical" >
   <v type="logical" >  F  F  F </v>
   <v type="logical" >  F  F  F </v>
   <v type="logical" >  F  F  F </v>
   <v type="logical" >  F  F  F </v>
   <v type="logical" >  F  F  F </v>
   <v type="logical" >  F  F  F </v>
   <v type="logical" >  F  F  F </v>
   <v type="logical" >  F  F  F </v>
   <v type="logical" >  F  F  F </v>
   <v type="logical" >  F  F  F </v>
   <v type="logical" >  F  F  F </v>
   <v type="logical" >  F  F  F </v>
   <v type="logical" >  F  F  F </v>
   <v type="logical" >  F  F  F </v>
   <v type="logical" >  F  F  F </v>
   <v type="logical" >  F  F  F </v>
   <v type="logical" >  F  F  F </v>
   <v type="logical" >  F  F  F </v>
   <v type="logical" >  T  T  T </v>
   <v type="logical" >  T  T  T </v>
   <v type="logical" >  T  T  T </v>
   <v type="logical" >  T  T  T </v>
   <v type="logical" >  T  T  T </v>
   <v type="logical" >  T  T  T </v>
   <v type="logical" >  T  T  T </v>
   <v type="logical" >  T  T  T </v>
   <v type="logical" >  T  T  T </v>
   <v type="logical" >  T  T  T </v>
   <v type="logical" >  T  T  T </v>
   <v type="logical" >  T  T  T </v>
   <v type="logical" >  T  T  T </v>
   <v type="logical" >  T  T  T </v>
   <v type="logical" >  T  T  T </v>
   <v type="logical" >  T  T  T </v>
   <v type="logical" >  T  T  T </v>
   <v type="logical" >  T  T  T </v>
   <v type="logical" >  T  T  T </v>
   <v type="logical" >  T  T  T </v>
   <v type="logical" >  T  T  T </v>
   <v type="logical" >  T  T  T </v>
  </varray>
  <nose>
   <v>      -3.00000000       0.00000000       0.00010000       0.00010000 </v>
  </nose>
 </structure>
</modeling>
