   40   40    1    1
  0.3359208E+02  0.8421642E-09  0.8421642E-09  0.2187624E-08  0.5000000E-15
  1.000000000000000E-004
  CAR 
 unknown system                          
    370     54    225
 
  0.8333333E-01  0.8333333E-01  0.0000000E+00  0.1851852E-01
    1      -13.815903   1.000000
    2       -8.588678   1.000000
    3       -7.766269   1.000000
    4       -6.721889   1.000000
    5       -6.364689   1.000000
    6       -5.488668   1.000000
    7       -5.431068   1.000000
    8       -5.399935   1.000000
    9       -5.345956   1.000000
   10       -5.264121   1.000000
   11       -5.227398   1.000000
   12       -5.187784   1.000000
   13       -5.152562   1.000000
   14       -4.903663   1.000000
   15       -4.783245   1.000000
   16       -4.721814   1.000000
   17       -4.696890   1.000000
   18       -4.678132   1.000000
   19       -4.671757   1.000000
   20       -4.443387   1.000000
   21       -4.402906   1.000000
   22       -4.352204   1.000000
   23       -4.239470   1.000000
   24       -4.214870   1.000000
   25       -4.204689   1.000000
   26       -4.129578   1.000000
   27       -4.088695   1.000000
   28       -4.044097   1.000000
   29       -3.992010   1.000000
   30       -3.930953   1.000000
   31       -3.919520   1.000000
   32       -3.880121   1.000000
   33       -3.845865   1.000000
   34       -3.815656   1.000000
   35       -3.802014   1.000000
   36       -3.781058   1.000000
   37       -3.757013   1.000000
   38       -3.743893   1.000000
   39       -3.741610   1.000000
   40       -3.709063   1.000000
   41       -3.677414   1.000000
   42       -3.609819   1.000000
   43       -3.548451   1.000000
   44       -3.529031   1.000000
   45       -3.311780   1.000000
   46       -3.227035   1.000000
   47       -3.149427   1.000000
   48       -3.122608   1.000000
   49       -3.108316   1.000000
   50       -3.100830   1.000000
   51       -3.072375   1.000000
   52       -3.031672   1.000000
   53       -2.996227   1.000000
   54       -2.956639   1.000000
   55       -2.898995   1.000000
   56       -2.828617   1.000000
   57       -2.809062   1.000000
   58       -2.785311   1.000000
   59       -2.654895   1.000000
   60       -2.550052   1.000000
   61       -2.359153   1.000000
   62       -2.312945   1.000000
   63       -2.275509   1.000000
   64       -2.255676   1.000000
   65       -2.230218   1.000000
   66       -2.218609   1.000000
   67       -2.202079   1.000000
   68       -2.172179   1.000000
   69       -2.147052   1.000000
   70       -2.135889   1.000000
   71       -2.118539   1.000000
   72       -2.089214   1.000000
   73       -2.069335   1.000000
   74       -2.041556   1.000000
   75       -2.015049   1.000000
   76       -1.994088   1.000000
   77       -1.966820   1.000000
   78       -1.943064   1.000000
   79       -1.903896   1.000000
   80       -1.898593   1.000000
   81       -1.863517   1.000000
   82       -1.859803   1.000000
   83       -1.834126   1.000000
   84       -1.800968   1.000000
   85       -1.784241   1.000000
   86       -1.753205   1.000000
   87       -1.734056   1.000000
   88       -1.720471   1.000000
   89       -1.606870   1.000000
   90       -1.603598   1.000000
   91       -1.576076   1.000000
   92       -1.567378   1.000000
   93       -1.547088   1.000000
   94       -1.525502   1.000000
   95       -1.511494   1.000000
   96       -1.475051   1.000000
   97       -1.458230   1.000000
   98       -1.448038   1.000000
   99       -1.406267   1.000000
  100       -1.405233   1.000000
  101       -1.383226   1.000000
  102       -1.375569   1.000000
  103       -1.341339   1.000000
  104       -1.323124   1.000000
  105       -1.247269   1.000000
  106       -1.228087   1.000000
  107       -1.207603   1.000000
  108       -1.205023   1.000000
  109       -1.191376   1.000000
  110       -1.183107   1.000000
  111       -1.104862   1.000000
  112       -1.067948   1.000000
  113       -1.012131   1.000000
  114       -0.943569   1.000000
  115       -0.847154   1.000000
  116       -0.797619   1.000000
  117       -0.738723   1.000000
  118       -0.708508   1.000000
  119       -0.678790   1.000000
  120       -0.653091   1.000000
  121       -0.621166   1.000000
  122       -0.603860   1.000000
  123       -0.572840   1.000000
  124       -0.550802   1.000000
  125       -0.500255   1.000000
  126       -0.477121   1.000000
  127       -0.441457   1.000000
  128       -0.376410   1.000000
  129       -0.296239   1.000000
  130       -0.267797   1.000000
  131       -0.210233   1.000000
  132       -0.189466   1.000000
  133       -0.139131   1.000000
  134       -0.066156   1.000000
  135       -0.047092   1.000000
  136       -0.031647   1.000000
  137       -0.019834   1.000000
  138       -0.003161   1.000000
  139        0.011883   1.000000
  140        0.063686   0.999999
  141        0.078997   0.999999
  142        0.127186   0.999999
  143        0.188734   0.999997
  144        0.196551   0.999997
  145        0.253138   0.999995
  146        0.273104   0.999994
  147        0.297578   0.999992
  148        0.310319   0.999991
  149        0.340428   0.999988
  150        0.356030   0.999986
  151        0.392396   0.999980
  152        0.475652   0.999955
  153        0.510133   0.999936
  154        0.522811   0.999927
  155        0.548970   0.999906
  156        0.575845   0.999877
  157        0.597051   0.999848
  158        0.602250   0.999840
  159        0.628379   0.999792
  160        0.679821   0.999651
  161        0.687162   0.999625
  162        0.696948   0.999586
  163        0.730751   0.999420
  164        0.749930   0.999298
  165        0.775755   0.999091
  166        0.783770   0.999015
  167        0.809720   0.998724
  168        0.834433   0.998366
  169        0.866896   0.997741
  170        0.886329   0.997258
  171        0.898763   0.996896
  172        0.916559   0.996294
  173        0.923127   0.996044
  174        0.941069   0.995270
  175        0.955644   0.994532
  176        1.003221   0.991229
  177        1.009299   0.990685
  178        1.045425   0.986685
  179        1.087185   0.979922
  180        1.105159   0.976063
  181        1.115679   0.973478
  182        1.130212   0.969456
  183        1.151554   0.962463
  184        1.177834   0.951725
  185        1.188442   0.946611
  186        1.220069   0.928177
  187        1.241330   0.912648
  188        1.253942   0.902056
  189        1.265288   0.891565
  190        1.272747   0.884141
  191        1.288126   0.867432
  192        1.296639   0.857334
  193        1.350000   0.778976
  194        1.459245   0.541716
  195        1.492699   0.458276
  196        1.509705   0.416453
  197        1.527531   0.373882
  198        1.540004   0.345170
  199        1.583005   0.255337
  200        1.606019   0.214084
  201        1.908416   0.013068
  202        2.003652   0.005083
  203        2.208052   0.000661
  204        2.356062   0.000151
  205        2.413601   0.000085
  206        2.530302   0.000026
  207        2.858643   0.000001
  208        3.521357   0.000000
  209        4.142919   0.000000
  210        4.473237   0.000000
  211        4.653027   0.000000
  212        4.869616   0.000000
  213        5.047045   0.000000
  214        5.202592   0.000000
  215        5.362442   0.000000
  216        5.754263   0.000000
  217        5.858720   0.000000
  218        5.906391   0.000000
  219        6.233565   0.000000
  220        6.290940   0.000000
  221        6.510903   0.000000
  222        6.659061   0.000000
  223        6.738069   0.000000
  224        6.787770   0.000000
  225        6.966425   0.000000
 
  0.0000000E+00  0.8333333E-01  0.0000000E+00  0.1851852E-01
    1      -13.815903   1.000000
    2       -8.588678   1.000000
    3       -7.766281   1.000000
    4       -6.721879   1.000000
    5       -6.364707   1.000000
    6       -5.491165   1.000000
    7       -5.431019   1.000000
    8       -5.400096   1.000000
    9       -5.343148   1.000000
   10       -5.264099   1.000000
   11       -5.226939   1.000000
   12       -5.184392   1.000000
   13       -5.156451   1.000000
   14       -4.903870   1.000000
   15       -4.782775   1.000000
   16       -4.721078   1.000000
   17       -4.697156   1.000000
   18       -4.678797   1.000000
   19       -4.672234   1.000000
   20       -4.443439   1.000000
   21       -4.403041   1.000000
   22       -4.351894   1.000000
   23       -4.239419   1.000000
   24       -4.215305   1.000000
   25       -4.204003   1.000000
   26       -4.129445   1.000000
   27       -4.088756   1.000000
   28       -4.044129   1.000000
   29       -3.992136   1.000000
   30       -3.931252   1.000000
   31       -3.919849   1.000000
   32       -3.880433   1.000000
   33       -3.846814   1.000000
   34       -3.816270   1.000000
   35       -3.803891   1.000000
   36       -3.780257   1.000000
   37       -3.756149   1.000000
   38       -3.743246   1.000000
   39       -3.738984   1.000000
   40       -3.708279   1.000000
   41       -3.677262   1.000000
   42       -3.610825   1.000000
   43       -3.548852   1.000000
   44       -3.529385   1.000000
   45       -3.312174   1.000000
   46       -3.226576   1.000000
   47       -3.150349   1.000000
   48       -3.122677   1.000000
   49       -3.107785   1.000000
   50       -3.100416   1.000000
   51       -3.072082   1.000000
   52       -3.031562   1.000000
   53       -2.995699   1.000000
   54       -2.956917   1.000000
   55       -2.898998   1.000000
   56       -2.828346   1.000000
   57       -2.810671   1.000000
   58       -2.784196   1.000000
   59       -2.654981   1.000000
   60       -2.550096   1.000000
   61       -2.358421   1.000000
   62       -2.312245   1.000000
   63       -2.274219   1.000000
   64       -2.253947   1.000000
   65       -2.230351   1.000000
   66       -2.215243   1.000000
   67       -2.205484   1.000000
   68       -2.171045   1.000000
   69       -2.148074   1.000000
   70       -2.137773   1.000000
   71       -2.117649   1.000000
   72       -2.090329   1.000000
   73       -2.068804   1.000000
   74       -2.043214   1.000000
   75       -2.013387   1.000000
   76       -1.993556   1.000000
   77       -1.967486   1.000000
   78       -1.943183   1.000000
   79       -1.903704   1.000000
   80       -1.896643   1.000000
   81       -1.863842   1.000000
   82       -1.860574   1.000000
   83       -1.836175   1.000000
   84       -1.805698   1.000000
   85       -1.786296   1.000000
   86       -1.750495   1.000000
   87       -1.731931   1.000000
   88       -1.718490   1.000000
   89       -1.609505   1.000000
   90       -1.603861   1.000000
   91       -1.572301   1.000000
   92       -1.568094   1.000000
   93       -1.546039   1.000000
   94       -1.524856   1.000000
   95       -1.511977   1.000000
   96       -1.474511   1.000000
   97       -1.462846   1.000000
   98       -1.448026   1.000000
   99       -1.406397   1.000000
  100       -1.404830   1.000000
  101       -1.383910   1.000000
  102       -1.375588   1.000000
  103       -1.340756   1.000000
  104       -1.321877   1.000000
  105       -1.245376   1.000000
  106       -1.227492   1.000000
  107       -1.207638   1.000000
  108       -1.205017   1.000000
  109       -1.193783   1.000000
  110       -1.183522   1.000000
  111       -1.103878   1.000000
  112       -1.070483   1.000000
  113       -1.012119   1.000000
  114       -0.941794   1.000000
  115       -0.846585   1.000000
  116       -0.797608   1.000000
  117       -0.738560   1.000000
  118       -0.708297   1.000000
  119       -0.679013   1.000000
  120       -0.652664   1.000000
  121       -0.620877   1.000000
  122       -0.604499   1.000000
  123       -0.573549   1.000000
  124       -0.550632   1.000000
  125       -0.501146   1.000000
  126       -0.479034   1.000000
  127       -0.439800   1.000000
  128       -0.376404   1.000000
  129       -0.297256   1.000000
  130       -0.268503   1.000000
  131       -0.209073   1.000000
  132       -0.190059   1.000000
  133       -0.139517   1.000000
  134       -0.063880   1.000000
  135       -0.047150   1.000000
  136       -0.032470   1.000000
  137       -0.021162   1.000000
  138       -0.003794   1.000000
  139        0.010472   1.000000
  140        0.063717   0.999999
  141        0.078221   0.999999
  142        0.128424   0.999999
  143        0.187249   0.999997
  144        0.197771   0.999997
  145        0.252184   0.999995
  146        0.273136   0.999994
  147        0.297797   0.999992
  148        0.310518   0.999991
  149        0.340384   0.999988
  150        0.356507   0.999986
  151        0.393288   0.999980
  152        0.477656   0.999954
  153        0.510277   0.999936
  154        0.522839   0.999927
  155        0.549804   0.999905
  156        0.574901   0.999878
  157        0.596449   0.999849
  158        0.601553   0.999841
  159        0.628418   0.999792
  160        0.679265   0.999653
  161        0.687023   0.999625
  162        0.696776   0.999587
  163        0.731543   0.999416
  164        0.749894   0.999298
  165        0.775392   0.999094
  166        0.785463   0.998998
  167        0.809234   0.998730
  168        0.835624   0.998347
  169        0.867466   0.997729
  170        0.885312   0.997286
  171        0.897702   0.996929
  172        0.916696   0.996289
  173        0.925259   0.995959
  174        0.940933   0.995276
  175        0.956692   0.994474
  176        1.002423   0.991298
  177        1.008929   0.990719
  178        1.046002   0.986609
  179        1.086380   0.980080
  180        1.106076   0.975848
  181        1.114879   0.973684
  182        1.131825   0.968975
  183        1.152410   0.962153
  184        1.176530   0.952321
  185        1.188000   0.946834
  186        1.220350   0.927989
  187        1.239599   0.914018
  188        1.252035   0.903728
  189        1.263163   0.893602
  190        1.271302   0.885612
  191        1.288371   0.867151
  192        1.297118   0.856746
  193        1.351928   0.775637
  194        1.460969   0.537434
  195        1.494337   0.454212
  196        1.508120   0.420310
  197        1.527632   0.373644
  198        1.541491   0.341818
  199        1.582951   0.255440
  200        1.607391   0.211784
  201        1.908588   0.013046
  202        2.003327   0.005099
  203        2.208490   0.000658
  204        2.355094   0.000152
  205        2.415064   0.000083
  206        2.528849   0.000027
  207        2.858278   0.000001
  208        3.521154   0.000000
  209        4.142952   0.000000
  210        4.472424   0.000000
  211        4.655892   0.000000
  212        4.869088   0.000000
  213        5.045055   0.000000
  214        5.203628   0.000000
  215        5.362311   0.000000
  216        5.753814   0.000000
  217        5.858074   0.000000
  218        5.905678   0.000000
  219        6.235664   0.000000
  220        6.292939   0.000000
  221        6.511600   0.000000
  222        6.636200   0.000000
  223        6.732492   0.000000
  224        6.777346   0.000000
  225        6.944074   0.000000
 
 -0.8333333E-01  0.0000000E+00  0.0000000E+00  0.1851852E-01
    1      -13.815878   1.000000
    2       -8.587705   1.000000
    3       -7.766848   1.000000
    4       -6.721250   1.000000
    5       -6.366007   1.000000
    6       -5.515111   1.000000
    7       -5.441981   1.000000
    8       -5.357008   1.000000
    9       -5.342895   1.000000
   10       -5.264698   1.000000
   11       -5.214237   1.000000
   12       -5.183829   1.000000
   13       -5.179958   1.000000
   14       -4.916334   1.000000
   15       -4.763698   1.000000
   16       -4.721165   1.000000
   17       -4.689971   1.000000
   18       -4.676914   1.000000
   19       -4.676071   1.000000
   20       -4.453351   1.000000
   21       -4.415828   1.000000
   22       -4.342488   1.000000
   23       -4.242764   1.000000
   24       -4.211713   1.000000
   25       -4.199213   1.000000
   26       -4.139284   1.000000
   27       -4.068963   1.000000
   28       -4.034660   1.000000
   29       -3.997942   1.000000
   30       -3.936251   1.000000
   31       -3.914491   1.000000
   32       -3.861237   1.000000
   33       -3.856409   1.000000
   34       -3.843954   1.000000
   35       -3.803360   1.000000
   36       -3.790565   1.000000
   37       -3.754329   1.000000
   38       -3.745491   1.000000
   39       -3.731731   1.000000
   40       -3.724215   1.000000
   41       -3.656460   1.000000
   42       -3.598910   1.000000
   43       -3.560377   1.000000
   44       -3.526140   1.000000
   45       -3.331235   1.000000
   46       -3.224204   1.000000
   47       -3.140729   1.000000
   48       -3.111798   1.000000
   49       -3.099634   1.000000
   50       -3.099087   1.000000
   51       -3.080024   1.000000
   52       -3.026379   1.000000
   53       -3.000704   1.000000
   54       -2.973167   1.000000
   55       -2.906061   1.000000
   56       -2.830404   1.000000
   57       -2.804952   1.000000
   58       -2.777684   1.000000
   59       -2.652598   1.000000
   60       -2.558108   1.000000
   61       -2.355603   1.000000
   62       -2.308147   1.000000
   63       -2.272246   1.000000
   64       -2.247296   1.000000
   65       -2.244046   1.000000
   66       -2.208978   1.000000
   67       -2.184579   1.000000
   68       -2.159170   1.000000
   69       -2.156103   1.000000
   70       -2.138558   1.000000
   71       -2.134807   1.000000
   72       -2.103495   1.000000
   73       -2.065702   1.000000
   74       -2.030550   1.000000
   75       -2.020073   1.000000
   76       -1.998231   1.000000
   77       -1.960807   1.000000
   78       -1.935514   1.000000
   79       -1.932025   1.000000
   80       -1.898904   1.000000
   81       -1.873609   1.000000
   82       -1.857462   1.000000
   83       -1.849311   1.000000
   84       -1.825746   1.000000
   85       -1.758910   1.000000
   86       -1.751289   1.000000
   87       -1.729868   1.000000
   88       -1.689321   1.000000
   89       -1.626430   1.000000
   90       -1.596821   1.000000
   91       -1.585517   1.000000
   92       -1.557056   1.000000
   93       -1.548230   1.000000
   94       -1.526538   1.000000
   95       -1.484209   1.000000
   96       -1.483314   1.000000
   97       -1.454520   1.000000
   98       -1.438861   1.000000
   99       -1.425699   1.000000
  100       -1.404160   1.000000
  101       -1.375281   1.000000
  102       -1.373196   1.000000
  103       -1.345998   1.000000
  104       -1.343355   1.000000
  105       -1.247371   1.000000
  106       -1.228449   1.000000
  107       -1.206652   1.000000
  108       -1.206022   1.000000
  109       -1.197581   1.000000
  110       -1.180608   1.000000
  111       -1.104672   1.000000
  112       -1.029047   1.000000
  113       -1.000795   1.000000
  114       -0.960340   1.000000
  115       -0.858487   1.000000
  116       -0.819042   1.000000
  117       -0.731408   1.000000
  118       -0.705545   1.000000
  119       -0.666257   1.000000
  120       -0.650205   1.000000
  121       -0.618826   1.000000
  122       -0.591694   1.000000
  123       -0.565115   1.000000
  124       -0.556036   1.000000
  125       -0.475681   1.000000
  126       -0.465408   1.000000
  127       -0.449801   1.000000
  128       -0.371143   1.000000
  129       -0.336425   1.000000
  130       -0.260018   1.000000
  131       -0.217315   1.000000
  132       -0.180835   1.000000
  133       -0.140504   1.000000
  134       -0.051552   1.000000
  135       -0.039295   1.000000
  136       -0.032673   1.000000
  137       -0.028686   1.000000
  138       -0.004430   1.000000
  139        0.002178   1.000000
  140        0.066299   0.999999
  141        0.071053   0.999999
  142        0.104838   0.999999
  143        0.170311   0.999998
  144        0.188249   0.999997
  145        0.241743   0.999996
  146        0.271137   0.999994
  147        0.310089   0.999991
  148        0.312560   0.999991
  149        0.348767   0.999987
  150        0.381721   0.999982
  151        0.395429   0.999980
  152        0.504137   0.999940
  153        0.519497   0.999930
  154        0.530520   0.999922
  155        0.536408   0.999917
  156        0.547235   0.999907
  157        0.604161   0.999836
  158        0.613699   0.999820
  159        0.626262   0.999796
  160        0.679465   0.999653
  161        0.685619   0.999631
  162        0.712774   0.999516
  163        0.716894   0.999495
  164        0.747894   0.999312
  165        0.773903   0.999108
  166        0.789905   0.998953
  167        0.818842   0.998602
  168        0.834906   0.998359
  169        0.859312   0.997906
  170        0.884238   0.997315
  171        0.900257   0.996850
  172        0.906321   0.996654
  173        0.927740   0.995857
  174        0.932856   0.995641
  175        0.939972   0.995321
  176        0.995346   0.991888
  177        1.006770   0.990915
  178        1.052988   0.985654
  179        1.078188   0.981618
  180        1.094541   0.978423
  181        1.114652   0.973742
  182        1.126522   0.970531
  183        1.169873   0.955254
  184        1.175954   0.952582
  185        1.179204   0.951092
  186        1.212540   0.933037
  187        1.220605   0.927819
  188        1.255347   0.900808
  189        1.261133   0.895517
  190        1.276523   0.880216
  191        1.289893   0.865387
  192        1.300034   0.853130
  193        1.406198   0.667682
  194        1.423403   0.628475
  195        1.485446   0.476330
  196        1.520838   0.389676
  197        1.527015   0.375088
  198        1.548913   0.325322
  199        1.582328   0.256627
  200        1.588506   0.245020
  201        1.949419   0.008710
  202        2.016375   0.004478
  203        2.215387   0.000614
  204        2.341179   0.000175
  205        2.386911   0.000111
  206        2.525473   0.000028
  207        2.854834   0.000001
  208        3.545704   0.000000
  209        4.133885   0.000000
  210        4.468972   0.000000
  211        4.650445   0.000000
  212        4.869909   0.000000
  213        5.096619   0.000000
  214        5.122607   0.000000
  215        5.389956   0.000000
  216        5.738624   0.000000
  217        5.841538   0.000000
  218        5.925381   0.000000
  219        6.223658   0.000000
  220        6.356846   0.000000
  221        6.449927   0.000000
  222        6.677674   0.000000
  223        6.736076   0.000000
  224        6.753579   0.000000
  225        6.844282   0.000000
 
  0.2500000E+00  0.8333333E-01  0.0000000E+00  0.1851852E-01
    1      -13.815225   1.000000
    2       -8.587303   1.000000
    3       -7.612111   1.000000
    4       -6.669990   1.000000
    5       -6.263372   1.000000
    6       -5.861603   1.000000
    7       -5.640905   1.000000
    8       -5.301718   1.000000
    9       -5.215736   1.000000
   10       -5.129186   1.000000
   11       -5.115061   1.000000
   12       -5.053425   1.000000
   13       -5.015757   1.000000
   14       -4.960779   1.000000
   15       -4.785657   1.000000
   16       -4.758870   1.000000
   17       -4.684220   1.000000
   18       -4.609899   1.000000
   19       -4.554106   1.000000
   20       -4.454650   1.000000
   21       -4.398178   1.000000
   22       -4.271292   1.000000
   23       -4.234575   1.000000
   24       -4.191230   1.000000
   25       -4.165268   1.000000
   26       -4.113772   1.000000
   27       -4.084224   1.000000
   28       -4.038839   1.000000
   29       -4.000909   1.000000
   30       -3.988200   1.000000
   31       -3.950138   1.000000
   32       -3.937442   1.000000
   33       -3.901432   1.000000
   34       -3.869963   1.000000
   35       -3.858858   1.000000
   36       -3.821476   1.000000
   37       -3.782361   1.000000
   38       -3.730087   1.000000
   39       -3.635000   1.000000
   40       -3.571707   1.000000
   41       -3.561393   1.000000
   42       -3.524701   1.000000
   43       -3.493066   1.000000
   44       -3.422253   1.000000
   45       -3.360216   1.000000
   46       -3.297422   1.000000
   47       -3.218770   1.000000
   48       -3.191565   1.000000
   49       -3.150363   1.000000
   50       -3.126642   1.000000
   51       -3.082337   1.000000
   52       -3.012078   1.000000
   53       -2.957280   1.000000
   54       -2.942702   1.000000
   55       -2.882073   1.000000
   56       -2.843860   1.000000
   57       -2.815415   1.000000
   58       -2.750526   1.000000
   59       -2.704396   1.000000
   60       -2.627166   1.000000
   61       -2.583547   1.000000
   62       -2.549066   1.000000
   63       -2.418310   1.000000
   64       -2.365362   1.000000
   65       -2.346372   1.000000
   66       -2.319302   1.000000
   67       -2.308163   1.000000
   68       -2.277992   1.000000
   69       -2.209649   1.000000
   70       -2.199799   1.000000
   71       -2.172122   1.000000
   72       -2.131546   1.000000
   73       -2.089735   1.000000
   74       -2.084912   1.000000
   75       -2.056472   1.000000
   76       -2.047728   1.000000
   77       -2.019150   1.000000
   78       -2.001166   1.000000
   79       -1.967559   1.000000
   80       -1.873528   1.000000
   81       -1.856392   1.000000
   82       -1.841103   1.000000
   83       -1.826304   1.000000
   84       -1.782772   1.000000
   85       -1.755772   1.000000
   86       -1.744570   1.000000
   87       -1.708478   1.000000
   88       -1.683922   1.000000
   89       -1.670018   1.000000
   90       -1.652325   1.000000
   91       -1.615297   1.000000
   92       -1.581918   1.000000
   93       -1.569394   1.000000
   94       -1.551325   1.000000
   95       -1.529377   1.000000
   96       -1.512691   1.000000
   97       -1.489385   1.000000
   98       -1.472151   1.000000
   99       -1.461141   1.000000
  100       -1.427054   1.000000
  101       -1.397215   1.000000
  102       -1.376472   1.000000
  103       -1.366991   1.000000
  104       -1.328142   1.000000
  105       -1.318054   1.000000
  106       -1.297804   1.000000
  107       -1.276815   1.000000
  108       -1.237874   1.000000
  109       -1.204645   1.000000
  110       -1.165976   1.000000
  111       -1.148175   1.000000
  112       -1.124381   1.000000
  113       -1.087857   1.000000
  114       -1.037793   1.000000
  115       -0.997949   1.000000
  116       -0.919757   1.000000
  117       -0.904082   1.000000
  118       -0.876311   1.000000
  119       -0.782084   1.000000
  120       -0.700460   1.000000
  121       -0.682917   1.000000
  122       -0.650780   1.000000
  123       -0.615498   1.000000
  124       -0.571891   1.000000
  125       -0.546420   1.000000
  126       -0.515849   1.000000
  127       -0.480506   1.000000
  128       -0.424389   1.000000
  129       -0.388961   1.000000
  130       -0.345493   1.000000
  131       -0.324366   1.000000
  132       -0.220743   1.000000
  133       -0.163517   1.000000
  134       -0.150289   1.000000
  135       -0.137788   1.000000
  136       -0.110346   1.000000
  137       -0.085091   1.000000
  138       -0.043681   1.000000
  139       -0.020445   1.000000
  140        0.014150   1.000000
  141        0.039050   0.999999
  142        0.121907   0.999999
  143        0.147781   0.999998
  144        0.172714   0.999998
  145        0.202415   0.999997
  146        0.210028   0.999997
  147        0.232757   0.999996
  148        0.282343   0.999993
  149        0.296003   0.999992
  150        0.310855   0.999991
  151        0.341394   0.999988
  152        0.368098   0.999985
  153        0.408605   0.999977
  154        0.421735   0.999974
  155        0.467838   0.999958
  156        0.487951   0.999949
  157        0.513433   0.999934
  158        0.548528   0.999906
  159        0.576345   0.999876
  160        0.642986   0.999759
  161        0.702883   0.999561
  162        0.723041   0.999463
  163        0.771908   0.999125
  164        0.810701   0.998711
  165        0.822493   0.998550
  166        0.858622   0.997920
  167        0.894086   0.997038
  168        0.924706   0.995981
  169        0.936386   0.995485
  170        0.977717   0.993190
  171        1.016492   0.989997
  172        1.046727   0.986513
  173        1.085940   0.980166
  174        1.109354   0.975063
  175        1.130383   0.969406
  176        1.144463   0.964942
  177        1.174718   0.953137
  178        1.205356   0.937388
  179        1.224865   0.924913
  180        1.254229   0.901802
  181        1.282700   0.873548
  182        1.288884   0.866559
  183        1.327348   0.815510
  184        1.342067   0.792332
  185        1.382325   0.718384
  186        1.407731   0.664272
  187        1.415994   0.645603
  188        1.462941   0.532529
  189        1.468252   0.519286
  190        1.483321   0.481631
  191        1.500777   0.438299
  192        1.544798   0.334416
  193        1.563827   0.293476
  194        1.621411   0.189325
  195        1.646154   0.154226
  196        1.682828   0.112189
  197        1.720743   0.079605
  198        1.769944   0.050224
  199        1.928020   0.010766
  200        1.954856   0.008253
  201        2.018435   0.004387
  202        2.127193   0.001483
  203        2.369608   0.000131
  204        2.615728   0.000011
  205        2.874367   0.000001
  206        3.018758   0.000000
  207        3.121445   0.000000
  208        3.590075   0.000000
  209        4.012468   0.000000
  210        4.274205   0.000000
  211        4.679631   0.000000
  212        4.813570   0.000000
  213        5.023838   0.000000
  214        5.101108   0.000000
  215        5.360829   0.000000
  216        5.467027   0.000000
  217        5.660790   0.000000
  218        5.873599   0.000000
  219        6.032782   0.000000
  220        6.081919   0.000000