       N       E                     dE             d eps       ncg     rms          rms(c)
DAV:   1     0.220233074455E+04    0.22023E+04   -0.14658E+05 24330   0.117E+03
DAV:   2    -0.878867529639E+02   -0.22902E+04   -0.21174E+04 28380   0.269E+02
DAV:   3    -0.245659052322E+03   -0.15777E+03   -0.14310E+03 29060   0.641E+01
DAV:   4    -0.252474134496E+03   -0.68151E+01   -0.66020E+01 31110   0.129E+01    0.643E+01
RMM:   5    -0.240636289674E+03    0.11838E+02   -0.55764E+01 25723   0.147E+01    0.435E+01
RMM:   6    -0.286908193240E+03   -0.46272E+02   -0.77380E+01 26091   0.132E+01    0.575E+01
RMM:   7    -0.247381468454E+03    0.39527E+02   -0.31582E+01 25296   0.915E+00    0.317E+01
RMM:   8    -0.247772643373E+03   -0.39117E+00   -0.21306E+01 25722   0.727E+00    0.324E+01
RMM:   9    -0.245118649437E+03    0.26540E+01   -0.13552E+01 25943   0.573E+00    0.295E+01
RMM:  10    -0.235456430530E+03    0.96622E+01   -0.33237E+00 25103   0.313E+00    0.987E+00
RMM:  11    -0.235285510604E+03    0.17092E+00   -0.15155E+00 25715   0.195E+00    0.867E+00
RMM:  12    -0.234813005292E+03    0.47251E+00   -0.62987E-01 25511   0.126E+00    0.488E+00
RMM:  13    -0.234711569200E+03    0.10144E+00   -0.33487E-01 25982   0.905E-01    0.305E+00
RMM:  14    -0.234669287049E+03    0.42282E-01   -0.65212E-02 26307   0.402E-01    0.249E+00
RMM:  15    -0.234631946640E+03    0.37340E-01   -0.15295E-02 25694   0.208E-01    0.170E+00
RMM:  16    -0.234614473744E+03    0.17473E-01   -0.20969E-02 25465   0.231E-01    0.116E+00
RMM:  17    -0.234604661258E+03    0.98125E-02   -0.11591E-02 25534   0.169E-01    0.515E-01
RMM:  18    -0.234603164262E+03    0.14970E-02   -0.41672E-03 25767   0.104E-01    0.335E-01
RMM:  19    -0.234602432663E+03    0.73160E-03   -0.98309E-04 26264   0.503E-02    0.235E-01
RMM:  20    -0.234602026879E+03    0.40578E-03   -0.44521E-04 25794   0.341E-02    0.170E-01
RMM:  21    -0.234601855110E+03    0.17177E-03   -0.33746E-04 25723   0.276E-02    0.133E-01
RMM:  22    -0.234601782854E+03    0.72256E-04   -0.22320E-04 25821   0.217E-02    0.761E-02
RMM:  23    -0.234601916368E+03   -0.13351E-03   -0.15550E-04 25985   0.175E-02    0.444E-02
RMM:  24    -0.234602227166E+03   -0.31080E-03   -0.19505E-04 25425   0.200E-02    0.831E-02
RMM:  25    -0.234602373648E+03   -0.14648E-03   -0.48243E-05 26563   0.101E-02    0.828E-02
RMM:  26    -0.234602696138E+03   -0.32249E-03   -0.54117E-05 25364   0.112E-02    0.521E-02
RMM:  27    -0.234602808130E+03   -0.11199E-03   -0.11486E-05 25470   0.508E-03    0.362E-02
RMM:  28    -0.234603122001E+03   -0.31387E-03   -0.20130E-05 25546   0.646E-03    0.114E-02
RMM:  29    -0.234603271746E+03   -0.14975E-03   -0.91164E-06 22021   0.385E-03    0.108E-02
RMM:  30    -0.234603431423E+03   -0.15968E-03   -0.58479E-06 19364   0.288E-03    0.978E-03
RMM:  31    -0.234603519826E+03   -0.88403E-04   -0.31038E-06 17987   0.223E-03    0.872E-03
RMM:  32    -0.234603597406E+03   -0.77580E-04   -0.23933E-06 16845   0.184E-03    0.703E-03
RMM:  33    -0.234603625580E+03   -0.28174E-04   -0.80030E-07 15248   0.111E-03    0.484E-03
RMM:  34    -0.234603659610E+03   -0.34030E-04   -0.11731E-06 15292   0.120E-03    0.310E-03
RMM:  35    -0.234603672519E+03   -0.12909E-04   -0.54264E-07 12297   0.844E-04    0.218E-03
RMM:  36    -0.234603676679E+03   -0.41599E-05   -0.24425E-07 10082   0.631E-04    0.156E-03
RMM:  37    -0.234603681175E+03   -0.44962E-05   -0.25822E-07 11646   0.657E-04    0.592E-04
RMM:  38    -0.234603682942E+03   -0.17667E-05   -0.11038E-07  7435   0.482E-04    0.518E-04
RMM:  39    -0.234603683749E+03   -0.80715E-06   -0.55504E-08  5889   0.455E-04
   1 F= -.23460368E+03 E0= -.23356025E+03  d E =-.208687E+01
