   8   8   0   0
  0.1000000E+04  0.2000000E-08  0.2000000E-08  0.2000000E-08  0.5000000E-15
  1.000000000000000E-004
  CAR 
 unknown system                          
      1.50328773    -19.49402295  301     -5.63579790      1.00000000
    -19.494  0.0000E+00  0.0000E+00
    -19.424  0.0000E+00  0.0000E+00
    -19.354  0.5259E-02  0.3681E-03
    -19.284  0.5328E-02  0.7410E-03
    -19.214  0.1072E-01  0.1492E-02
    -19.144  0.2157E-01  0.3001E-02
    -19.074  0.4333E-01  0.6034E-02
    -19.004  0.8685E-01  0.1211E-01
    -18.934  0.1733E+00  0.2424E-01
    -18.864  0.3426E+00  0.4822E-01
    -18.794  0.6652E+00  0.9477E-01
    -18.724  0.1247E+01  0.1821E+00
    -18.654  0.2194E+01  0.3357E+00
    -18.584  0.3457E+01  0.5776E+00
    -18.514  0.4602E+01  0.8997E+00
    -18.444  0.4923E+01  0.1244E+01
    -18.374  0.4176E+01  0.1537E+01
    -18.304  0.2899E+01  0.1739E+01
    -18.234  0.1744E+01  0.1862E+01
    -18.164  0.9605E+00  0.1929E+01
    -18.094  0.5033E+00  0.1964E+01
    -18.024  0.2568E+00  0.1982E+01
    -17.954  0.1293E+00  0.1991E+01
    -17.884  0.6466E-01  0.1996E+01
    -17.814  0.3222E-01  0.1998E+01
    -17.744  0.1603E-01  0.1999E+01
    -17.674  0.0000E+00  0.2000E+01
    -17.604  0.0000E+00  0.2000E+01
    -17.534  0.0000E+00  0.2000E+01
    -17.464  0.0000E+00  0.2000E+01
    -17.394  0.0000E+00  0.2000E+01
    -17.324  0.0000E+00  0.2000E+01
    -17.254  0.0000E+00  0.2000E+01
    -17.184  0.0000E+00  0.2000E+01
    -17.114  0.0000E+00  0.2000E+01
    -17.044  0.0000E+00  0.2000E+01
    -16.974  0.0000E+00  0.2000E+01
    -16.904  0.0000E+00  0.2000E+01
    -16.834  0.0000E+00  0.2000E+01
    -16.764  0.0000E+00  0.2000E+01
    -16.694  0.0000E+00  0.2000E+01
    -16.624  0.0000E+00  0.2000E+01
    -16.554  0.0000E+00  0.2000E+01
    -16.484  0.0000E+00  0.2000E+01
    -16.414  0.0000E+00  0.2000E+01
    -16.344  0.0000E+00  0.2000E+01
    -16.274  0.0000E+00  0.2000E+01
    -16.204  0.0000E+00  0.2000E+01
    -16.134  0.0000E+00  0.2000E+01
    -16.064  0.0000E+00  0.2000E+01
    -15.994  0.0000E+00  0.2000E+01
    -15.924  0.0000E+00  0.2000E+01
    -15.854  0.0000E+00  0.2000E+01
    -15.784  0.8580E-02  0.2001E+01
    -15.715  0.8691E-02  0.2001E+01
    -15.645  0.1748E-01  0.2002E+01
    -15.575  0.3514E-01  0.2005E+01
    -15.505  0.7050E-01  0.2010E+01
    -15.435  0.1409E+00  0.2020E+01
    -15.365  0.2795E+00  0.2039E+01
    -15.295  0.5464E+00  0.2077E+01
    -15.225  0.1038E+01  0.2150E+01
    -15.155  0.1869E+01  0.2281E+01
    -15.085  0.3061E+01  0.2495E+01
    -15.015  0.4313E+01  0.2797E+01
    -14.945  0.4945E+01  0.3143E+01
    -14.875  0.4491E+01  0.3457E+01
    -14.805  0.3293E+01  0.3688E+01
    -14.735  0.2055E+01  0.3832E+01
    -14.665  0.1157E+01  0.3913E+01
    -14.595  0.6133E+00  0.3956E+01
    -14.525  0.3149E+00  0.3978E+01
    -14.455  0.1591E+00  0.3989E+01
    -14.385  0.7966E-01  0.3994E+01
    -14.315  0.3973E-01  0.3997E+01
    -14.245  0.1977E-01  0.3999E+01
    -14.175  0.9829E-02  0.3999E+01
    -14.105  0.0000E+00  0.4000E+01
    -14.035  0.0000E+00  0.4000E+01
    -13.965  0.0000E+00  0.4000E+01
    -13.895  0.0000E+00  0.4000E+01
    -13.825  0.0000E+00  0.4000E+01
    -13.755  0.0000E+00  0.4000E+01
    -13.685  0.0000E+00  0.4000E+01
    -13.615  0.0000E+00  0.4000E+01
    -13.545  0.0000E+00  0.4000E+01
    -13.475  0.0000E+00  0.4000E+01
    -13.405  0.0000E+00  0.4000E+01
    -13.335  0.0000E+00  0.4000E+01
    -13.265  0.0000E+00  0.4000E+01
    -13.195  0.0000E+00  0.4000E+01
    -13.125  0.0000E+00  0.4000E+01
    -13.055  0.0000E+00  0.4000E+01
    -12.985  0.0000E+00  0.4000E+01
    -12.915  0.0000E+00  0.4000E+01
    -12.845  0.0000E+00  0.4000E+01
    -12.775  0.0000E+00  0.4000E+01
    -12.705  0.0000E+00  0.4000E+01
    -12.635  0.0000E+00  0.4000E+01
    -12.565  0.0000E+00  0.4000E+01
    -12.495  0.0000E+00  0.4000E+01
    -12.425  0.0000E+00  0.4000E+01
    -12.355  0.0000E+00  0.4000E+01
    -12.285  0.0000E+00  0.4000E+01
    -12.215  0.0000E+00  0.4000E+01
    -12.145  0.0000E+00  0.4000E+01
    -12.075  0.0000E+00  0.4000E+01
    -12.005  0.0000E+00  0.4000E+01
    -11.935  0.0000E+00  0.4000E+01
    -11.865  0.0000E+00  0.4000E+01
    -11.795  0.0000E+00  0.4000E+01
    -11.725  0.0000E+00  0.4000E+01
    -11.655  0.0000E+00  0.4000E+01
    -11.585  0.0000E+00  0.4000E+01
    -11.515  0.0000E+00  0.4000E+01
    -11.445  0.0000E+00  0.4000E+01
    -11.375  0.0000E+00  0.4000E+01
    -11.305  0.1274E-01  0.4001E+01
    -11.235  0.1291E-01  0.4002E+01
    -11.165  0.2598E-01  0.4004E+01
    -11.095  0.5223E-01  0.4007E+01
    -11.025  0.1049E+00  0.4015E+01
    -10.955  0.2100E+00  0.4029E+01
    -10.885  0.4182E+00  0.4059E+01
    -10.815  0.8235E+00  0.4116E+01
    -10.745  0.1587E+01  0.4227E+01
    -10.675  0.2934E+01  0.4433E+01
    -10.605  0.5031E+01  0.4785E+01
    -10.535  0.7609E+01  0.5317E+01
    -10.465  0.9578E+01  0.5988E+01
    -10.395  0.9618E+01  0.6661E+01
    -10.325  0.7698E+01  0.7200E+01
    -10.255  0.5117E+01  0.7558E+01
    -10.185  0.2995E+01  0.7767E+01
    -10.115  0.1623E+01  0.7881E+01
    -10.045  0.8432E+00  0.7940E+01
     -9.975  0.4284E+00  0.7970E+01
     -9.905  0.2152E+00  0.7985E+01
     -9.835  0.1075E+00  0.7993E+01
     -9.765  0.5353E-01  0.7996E+01
     -9.695  0.3313E-01  0.7999E+01
     -9.625  0.6592E-02  0.8001E+01
     -9.555  0.1326E-01  0.8002E+01
     -9.485  0.2667E-01  0.8004E+01
     -9.415  0.5356E-01  0.8007E+01
     -9.345  0.1072E+00  0.8015E+01
     -9.275  0.2135E+00  0.8030E+01
     -9.205  0.4203E+00  0.8059E+01
     -9.135  0.8093E+00  0.8116E+01
     -9.065  0.1494E+01  0.8221E+01
     -8.995  0.2556E+01  0.8399E+01
     -8.925  0.3863E+01  0.8670E+01
     -8.855  0.4828E+01  0.9008E+01
     -8.785  0.4822E+01  0.9345E+01
     -8.715  0.3860E+01  0.9615E+01
     -8.645  0.2621E+01  0.9799E+01
     -8.575  0.1678E+01  0.9916E+01
     -8.505  0.1216E+01  0.1000E+02
     -8.435  0.1246E+01  0.1009E+02
     -8.365  0.1816E+01  0.1022E+02
     -8.295  0.3074E+01  0.1043E+02
     -8.225  0.5136E+01  0.1079E+02
     -8.155  0.7694E+01  0.1133E+02
     -8.085  0.9625E+01  0.1200E+02
     -8.015  0.9601E+01  0.1268E+02
     -7.946  0.7644E+01  0.1321E+02
     -7.876  0.5060E+01  0.1356E+02
     -7.806  0.2953E+01  0.1377E+02
     -7.736  0.1598E+01  0.1388E+02
     -7.666  0.8293E+00  0.1394E+02
     -7.596  0.4211E+00  0.1397E+02
     -7.526  0.2115E+00  0.1399E+02
     -7.456  0.1056E+00  0.1399E+02
     -7.386  0.5260E-01  0.1400E+02
     -7.316  0.2616E-01  0.1400E+02
     -7.246  0.0000E+00  0.1400E+02
     -7.176  0.0000E+00  0.1400E+02
     -7.106  0.0000E+00  0.1400E+02
     -7.036  0.0000E+00  0.1400E+02
     -6.966  0.0000E+00  0.1400E+02
     -6.896  0.0000E+00  0.1400E+02
     -6.826  0.0000E+00  0.1400E+02
     -6.756  0.0000E+00  0.1400E+02
     -6.686  0.0000E+00  0.1400E+02
     -6.616  0.0000E+00  0.1400E+02
     -6.546  0.0000E+00  0.1400E+02
     -6.476  0.0000E+00  0.1400E+02
     -6.406  0.0000E+00  0.1400E+02
     -6.336  0.0000E+00  0.1400E+02
     -6.266  0.0000E+00  0.1400E+02
     -6.196  0.0000E+00  0.1400E+02
     -6.126  0.0000E+00  0.1400E+02
     -6.056  0.0000E+00  0.1400E+02
     -5.986  0.0000E+00  0.1400E+02
     -5.916  0.0000E+00  0.1400E+02
     -5.846  0.0000E+00  0.1400E+02
     -5.776  0.0000E+00  0.1400E+02
     -5.706  0.0000E+00  0.1400E+02
     -5.636  0.0000E+00  0.1400E+02
     -5.566  0.0000E+00  0.1400E+02
     -5.496  0.0000E+00  0.1400E+02
     -5.426  0.0000E+00  0.1400E+02
     -5.356  0.0000E+00  0.1400E+02
     -5.286  0.0000E+00  0.1400E+02
     -5.216  0.0000E+00  0.1400E+02
     -5.146  0.0000E+00  0.1400E+02
     -5.076  0.0000E+00  0.1400E+02
     -5.006  0.0000E+00  0.1400E+02
     -4.936  0.0000E+00  0.1400E+02
     -4.866  0.0000E+00  0.1400E+02
     -4.796  0.0000E+00  0.1400E+02
     -4.726  0.0000E+00  0.1400E+02
     -4.656  0.0000E+00  0.1400E+02
     -4.586  0.0000E+00  0.1400E+02
     -4.516  0.0000E+00  0.1400E+02
     -4.446  0.0000E+00  0.1400E+02
     -4.376  0.0000E+00  0.1400E+02
     -4.306  0.0000E+00  0.1400E+02
     -4.236  0.0000E+00  0.1400E+02
     -4.166  0.0000E+00  0.1400E+02
     -4.096  0.0000E+00  0.1400E+02
     -4.026  0.0000E+00  0.1400E+02
     -3.956  0.0000E+00  0.1400E+02
     -3.886  0.0000E+00  0.1400E+02
     -3.816  0.0000E+00  0.1400E+02
     -3.746  0.0000E+00  0.1400E+02
     -3.676  0.0000E+00  0.1400E+02
     -3.606  0.0000E+00  0.1400E+02
     -3.536  0.0000E+00  0.1400E+02
     -3.466  0.0000E+00  0.1400E+02
     -3.396  0.0000E+00  0.1400E+02
     -3.326  0.0000E+00  0.1400E+02
     -3.256  0.0000E+00  0.1400E+02
     -3.186  0.0000E+00  0.1400E+02
     -3.116  0.0000E+00  0.1400E+02
     -3.046  0.0000E+00  0.1400E+02
     -2.976  0.0000E+00  0.1400E+02
     -2.906  0.0000E+00  0.1400E+02
     -2.836  0.0000E+00  0.1400E+02
     -2.766  0.0000E+00  0.1400E+02
     -2.696  0.0000E+00  0.1400E+02
     -2.626  0.0000E+00  0.1400E+02
     -2.556  0.0000E+00  0.1400E+02
     -2.486  0.0000E+00  0.1400E+02
     -2.416  0.0000E+00  0.1400E+02
     -2.346  0.0000E+00  0.1400E+02
     -2.276  0.0000E+00  0.1400E+02
     -2.206  0.0000E+00  0.1400E+02
     -2.136  0.0000E+00  0.1400E+02
     -2.066  0.0000E+00  0.1400E+02
     -1.996  0.0000E+00  0.1400E+02
     -1.926  0.0000E+00  0.1400E+02
     -1.856  0.0000E+00  0.1400E+02
     -1.786  0.0000E+00  0.1400E+02
     -1.716  0.0000E+00  0.1400E+02
     -1.646  0.0000E+00  0.1400E+02
     -1.576  0.0000E+00  0.1400E+02
     -1.506  0.0000E+00  0.1400E+02
     -1.436  0.0000E+00  0.1400E+02
     -1.366  0.0000E+00  0.1400E+02
     -1.296  0.5508E-02  0.1400E+02
     -1.226  0.5580E-02  0.1400E+02
     -1.156  0.1123E-01  0.1400E+02
     -1.086  0.2258E-01  0.1400E+02
     -1.016  0.4537E-01  0.1401E+02
     -0.946  0.9092E-01  0.1401E+02
     -0.876  0.1813E+00  0.1403E+02
     -0.806  0.3582E+00  0.1405E+02
     -0.736  0.7100E+00  0.1410E+02
     -0.666  0.1314E+01  0.1419E+02
     -0.596  0.2317E+01  0.1435E+02
     -0.526  0.3627E+01  0.1461E+02
     -0.456  0.4828E+01  0.1495E+02
     -0.386  0.5241E+01  0.1531E+02
     -0.316  0.4777E+01  0.1565E+02
     -0.246  0.4141E+01  0.1594E+02
     -0.176  0.4241E+01  0.1623E+02
     -0.107  0.5670E+01  0.1663E+02
     -0.037  0.8719E+01  0.1724E+02
      0.033  0.1315E+02  0.1816E+02
      0.103  0.1794E+02  0.1942E+02
      0.173  0.2185E+02  0.2095E+02
      0.243  0.2416E+02  0.2264E+02
      0.313  0.2446E+02  0.2435E+02
      0.383  0.2254E+02  0.2593E+02
      0.453  0.1891E+02  0.2725E+02
      0.523  0.1454E+02  0.2827E+02
      0.593  0.1022E+02  0.2898E+02
      0.663  0.6509E+01  0.2944E+02
      0.733  0.3783E+01  0.2970E+02
      0.803  0.2056E+01  0.2985E+02
      0.873  0.1072E+01  0.2992E+02
      0.943  0.5349E+00  0.2996E+02
      1.013  0.2691E+00  0.2998E+02
      1.083  0.1229E+00  0.2999E+02
      1.153  0.4333E-01  0.3000E+02
      1.223  0.2157E-01  0.3000E+02
      1.293  0.1072E-01  0.3000E+02
      1.363  0.0000E+00  0.3000E+02
      1.433  0.0000E+00  0.3000E+02
      1.503  0.0000E+00  0.3000E+02
