    8    8    1    1
  0.1000000E+04  0.2000000E-08  0.2000000E-08  0.2000000E-08  0.5000000E-15
  1.000000000000000E-004
  CAR 
 unknown system                          
     14      1     15
 
  0.0000000E+00  0.0000000E+00  0.0000000E+00  0.1000000E+01
    1      -18.494023   1.000000
    2      -14.973443   1.000000
    3      -10.471646   1.000000
    4      -10.456241   1.000000
    5       -8.856559   1.000000
    6       -8.090452   1.000000
    7       -8.081188   1.000000
    8       -0.440958   0.000000
    9        0.076517   0.000000
   10        0.090994   0.000000
   11        0.231738   0.000000
   12        0.232318   0.000000
   13        0.342917   0.000000
   14        0.347654   0.000000
   15        0.503288   0.000000
