   6   6   0   0
  0.1333333E+04  0.2000000E-08  0.2000000E-08  0.2000000E-08  0.5000000E-15
  1.000000000000000E-004
  CAR 
 unknown system                          
      1.30510017    -19.76970965  301     -4.31484911      1.00000000
    -19.770  0.0000E+00  0.0000E+00
    -19.699  0.0000E+00  0.0000E+00
    -19.629  0.5267E-02  0.3700E-03
    -19.559  0.5364E-02  0.7468E-03
    -19.489  0.1082E-01  0.1507E-02
    -19.418  0.2182E-01  0.3040E-02
    -19.348  0.4395E-01  0.6128E-02
    -19.278  0.8832E-01  0.1233E-01
    -19.208  0.1766E+00  0.2474E-01
    -19.137  0.3499E+00  0.4932E-01
    -19.067  0.6806E+00  0.9713E-01
    -18.997  0.1277E+01  0.1868E+00
    -18.927  0.2243E+01  0.3444E+00
    -18.856  0.3518E+01  0.5915E+00
    -18.786  0.4642E+01  0.9176E+00
    -18.716  0.4908E+01  0.1262E+01
    -18.646  0.4109E+01  0.1551E+01
    -18.575  0.2820E+01  0.1749E+01
    -18.505  0.1682E+01  0.1867E+01
    -18.435  0.9203E+00  0.1932E+01
    -18.365  0.4799E+00  0.1966E+01
    -18.294  0.2440E+00  0.1983E+01
    -18.224  0.1224E+00  0.1991E+01
    -18.154  0.6104E-01  0.1996E+01
    -18.084  0.3033E-01  0.1998E+01
    -18.013  0.1505E-01  0.1999E+01
    -17.943  0.0000E+00  0.2000E+01
    -17.873  0.0000E+00  0.2000E+01
    -17.803  0.0000E+00  0.2000E+01
    -17.732  0.0000E+00  0.2000E+01
    -17.662  0.0000E+00  0.2000E+01
    -17.592  0.0000E+00  0.2000E+01
    -17.522  0.0000E+00  0.2000E+01
    -17.451  0.0000E+00  0.2000E+01
    -17.381  0.0000E+00  0.2000E+01
    -17.311  0.0000E+00  0.2000E+01
    -17.241  0.0000E+00  0.2000E+01
    -17.170  0.0000E+00  0.2000E+01
    -17.100  0.0000E+00  0.2000E+01
    -17.030  0.0000E+00  0.2000E+01
    -16.960  0.0000E+00  0.2000E+01
    -16.889  0.0000E+00  0.2000E+01
    -16.819  0.0000E+00  0.2000E+01
    -16.749  0.0000E+00  0.2000E+01
    -16.679  0.0000E+00  0.2000E+01
    -16.608  0.0000E+00  0.2000E+01
    -16.538  0.0000E+00  0.2000E+01
    -16.468  0.0000E+00  0.2000E+01
    -16.398  0.0000E+00  0.2000E+01
    -16.327  0.0000E+00  0.2000E+01
    -16.257  0.0000E+00  0.2000E+01
    -16.187  0.0000E+00  0.2000E+01
    -16.117  0.0000E+00  0.2000E+01
    -16.046  0.0000E+00  0.2000E+01
    -15.976  0.0000E+00  0.2000E+01
    -15.906  0.0000E+00  0.2000E+01
    -15.836  0.0000E+00  0.2000E+01
    -15.765  0.0000E+00  0.2000E+01
    -15.695  0.0000E+00  0.2000E+01
    -15.625  0.0000E+00  0.2000E+01
    -15.555  0.0000E+00  0.2000E+01
    -15.484  0.0000E+00  0.2000E+01
    -15.414  0.0000E+00  0.2000E+01
    -15.344  0.0000E+00  0.2000E+01
    -15.274  0.0000E+00  0.2000E+01
    -15.204  0.0000E+00  0.2000E+01
    -15.133  0.0000E+00  0.2000E+01
    -15.063  0.0000E+00  0.2000E+01
    -14.993  0.9431E-02  0.2001E+01
    -14.923  0.9602E-02  0.2001E+01
    -14.852  0.1936E-01  0.2003E+01
    -14.782  0.3901E-01  0.2005E+01
    -14.712  0.7843E-01  0.2011E+01
    -14.642  0.1570E+00  0.2022E+01
    -14.571  0.3117E+00  0.2044E+01
    -14.501  0.6088E+00  0.2087E+01
    -14.431  0.1151E+01  0.2168E+01
    -14.361  0.2051E+01  0.2312E+01
    -14.290  0.3292E+01  0.2543E+01
    -14.220  0.4493E+01  0.2859E+01
    -14.150  0.4944E+01  0.3206E+01
    -14.080  0.4302E+01  0.3508E+01
    -14.009  0.3042E+01  0.3722E+01
    -13.939  0.1851E+01  0.3852E+01
    -13.869  0.1024E+01  0.3924E+01
    -13.799  0.5374E+00  0.3961E+01
    -13.728  0.2741E+00  0.3981E+01
    -13.658  0.1378E+00  0.3990E+01
    -13.588  0.6874E-01  0.3995E+01
    -13.518  0.3418E-01  0.3998E+01
    -13.447  0.1696E-01  0.3999E+01
    -13.377  0.0000E+00  0.4000E+01
    -13.307  0.0000E+00  0.4000E+01
    -13.237  0.0000E+00  0.4000E+01
    -13.166  0.0000E+00  0.4000E+01
    -13.096  0.0000E+00  0.4000E+01
    -13.026  0.0000E+00  0.4000E+01
    -12.956  0.0000E+00  0.4000E+01
    -12.885  0.0000E+00  0.4000E+01
    -12.815  0.0000E+00  0.4000E+01
    -12.745  0.0000E+00  0.4000E+01
    -12.675  0.0000E+00  0.4000E+01
    -12.604  0.0000E+00  0.4000E+01
    -12.534  0.0000E+00  0.4000E+01
    -12.464  0.0000E+00  0.4000E+01
    -12.394  0.0000E+00  0.4000E+01
    -12.323  0.0000E+00  0.4000E+01
    -12.253  0.6384E-02  0.4000E+01
    -12.183  0.6501E-02  0.4001E+01
    -12.113  0.1312E-01  0.4002E+01
    -12.042  0.2644E-01  0.4004E+01
    -11.972  0.5323E-01  0.4007E+01
    -11.902  0.1069E+00  0.4015E+01
    -11.832  0.2133E+00  0.4030E+01
    -11.761  0.4209E+00  0.4059E+01
    -11.691  0.8123E+00  0.4117E+01
    -11.621  0.1503E+01  0.4222E+01
    -11.551  0.2572E+01  0.4403E+01
    -11.480  0.3871E+01  0.4675E+01
    -11.410  0.4825E+01  0.5014E+01
    -11.340  0.4781E+01  0.5350E+01
    -11.270  0.3772E+01  0.5615E+01
    -11.199  0.2476E+01  0.5788E+01
    -11.129  0.1435E+01  0.5889E+01
    -11.059  0.7726E+00  0.5944E+01
    -10.989  0.4060E+00  0.5972E+01
    -10.918  0.2089E+00  0.5987E+01
    -10.848  0.1148E+00  0.5995E+01
    -10.778  0.7773E-01  0.6000E+01
    -10.708  0.8003E-01  0.6006E+01
    -10.637  0.1228E+00  0.6015E+01
    -10.567  0.2202E+00  0.6031E+01
    -10.497  0.4343E+00  0.6061E+01
    -10.427  0.8370E+00  0.6120E+01
    -10.356  0.1544E+01  0.6229E+01
    -10.286  0.2631E+01  0.6413E+01
    -10.216  0.3929E+01  0.6689E+01
    -10.146  0.4849E+01  0.7030E+01
    -10.075  0.4751E+01  0.7364E+01
    -10.005  0.3712E+01  0.7625E+01
     -9.935  0.2420E+01  0.7795E+01
     -9.865  0.1396E+01  0.7893E+01
     -9.794  0.7497E+00  0.7945E+01
     -9.724  0.3870E+00  0.7973E+01
     -9.654  0.1958E+00  0.7986E+01
     -9.584  0.9798E-01  0.7993E+01
     -9.513  0.4879E-01  0.7997E+01
     -9.443  0.2423E-01  0.7998E+01
     -9.373  0.1202E-01  0.7999E+01
     -9.303  0.6724E-02  0.8000E+01
     -9.232  0.6847E-02  0.8001E+01
     -9.162  0.1381E-01  0.8002E+01
     -9.092  0.2784E-01  0.8004E+01
     -9.022  0.5604E-01  0.8008E+01
     -8.951  0.1125E+00  0.8016E+01
     -8.881  0.2244E+00  0.8031E+01
     -8.811  0.4422E+00  0.8063E+01
     -8.741  0.8515E+00  0.8122E+01
     -8.670  0.1568E+01  0.8233E+01
     -8.600  0.2665E+01  0.8420E+01
     -8.530  0.3962E+01  0.8698E+01
     -8.460  0.4861E+01  0.9040E+01
     -8.389  0.4733E+01  0.9372E+01
     -8.319  0.3677E+01  0.9630E+01
     -8.249  0.2387E+01  0.9798E+01
     -8.179  0.1374E+01  0.9895E+01
     -8.108  0.7367E+00  0.9946E+01
     -8.038  0.3801E+00  0.9973E+01
     -7.968  0.1921E+00  0.9987E+01
     -7.898  0.9616E-01  0.9993E+01
     -7.827  0.4787E-01  0.9997E+01
     -7.757  0.2377E-01  0.9998E+01
     -7.687  0.1179E-01  0.9999E+01
     -7.617  0.4850E-02  0.1000E+02
     -7.546  0.4939E-02  0.1000E+02
     -7.476  0.9966E-02  0.1000E+02
     -7.406  0.2010E-01  0.1000E+02
     -7.336  0.4049E-01  0.1001E+02
     -7.265  0.8139E-01  0.1001E+02
     -7.195  0.1629E+00  0.1002E+02
     -7.125  0.3232E+00  0.1005E+02
     -7.055  0.6303E+00  0.1009E+02
     -6.984  0.1189E+01  0.1017E+02
     -6.914  0.2110E+01  0.1032E+02
     -6.844  0.3363E+01  0.1056E+02
     -6.774  0.4542E+01  0.1088E+02
     -6.703  0.4936E+01  0.1122E+02
     -6.633  0.4243E+01  0.1152E+02
     -6.563  0.2973E+01  0.1173E+02
     -6.493  0.1797E+01  0.1186E+02
     -6.422  0.9908E+00  0.1193E+02
     -6.352  0.5188E+00  0.1196E+02
     -6.282  0.2643E+00  0.1198E+02
     -6.212  0.1328E+00  0.1199E+02
     -6.141  0.6625E-01  0.1200E+02
     -6.071  0.3293E-01  0.1200E+02
     -6.001  0.1634E-01  0.1200E+02
     -5.931  0.0000E+00  0.1200E+02
     -5.860  0.0000E+00  0.1200E+02
     -5.790  0.0000E+00  0.1200E+02
     -5.720  0.0000E+00  0.1200E+02
     -5.650  0.0000E+00  0.1200E+02
     -5.579  0.0000E+00  0.1200E+02
     -5.509  0.0000E+00  0.1200E+02
     -5.439  0.0000E+00  0.1200E+02
     -5.369  0.0000E+00  0.1200E+02
     -5.298  0.0000E+00  0.1200E+02
     -5.228  0.0000E+00  0.1200E+02
     -5.158  0.0000E+00  0.1200E+02
     -5.088  0.0000E+00  0.1200E+02
     -5.017  0.0000E+00  0.1200E+02
     -4.947  0.0000E+00  0.1200E+02
     -4.877  0.0000E+00  0.1200E+02
     -4.807  0.0000E+00  0.1200E+02
     -4.736  0.0000E+00  0.1200E+02
     -4.666  0.0000E+00  0.1200E+02
     -4.596  0.0000E+00  0.1200E+02
     -4.526  0.0000E+00  0.1200E+02
     -4.455  0.0000E+00  0.1200E+02
     -4.385  0.0000E+00  0.1200E+02
     -4.315  0.0000E+00  0.1200E+02
     -4.245  0.0000E+00  0.1200E+02
     -4.174  0.0000E+00  0.1200E+02
     -4.104  0.0000E+00  0.1200E+02
     -4.034  0.0000E+00  0.1200E+02
     -3.964  0.0000E+00  0.1200E+02
     -3.893  0.0000E+00  0.1200E+02
     -3.823  0.0000E+00  0.1200E+02
     -3.753  0.0000E+00  0.1200E+02
     -3.683  0.0000E+00  0.1200E+02
     -3.612  0.0000E+00  0.1200E+02
     -3.542  0.0000E+00  0.1200E+02
     -3.472  0.0000E+00  0.1200E+02
     -3.402  0.0000E+00  0.1200E+02
     -3.331  0.0000E+00  0.1200E+02
     -3.261  0.0000E+00  0.1200E+02
     -3.191  0.0000E+00  0.1200E+02
     -3.121  0.0000E+00  0.1200E+02
     -3.050  0.0000E+00  0.1200E+02
     -2.980  0.0000E+00  0.1200E+02
     -2.910  0.0000E+00  0.1200E+02
     -2.840  0.0000E+00  0.1200E+02
     -2.769  0.0000E+00  0.1200E+02
     -2.699  0.0000E+00  0.1200E+02
     -2.629  0.0000E+00  0.1200E+02
     -2.559  0.0000E+00  0.1200E+02
     -2.488  0.0000E+00  0.1200E+02
     -2.418  0.0000E+00  0.1200E+02
     -2.348  0.0000E+00  0.1200E+02
     -2.278  0.0000E+00  0.1200E+02
     -2.207  0.0000E+00  0.1200E+02
     -2.137  0.0000E+00  0.1200E+02
     -2.067  0.0000E+00  0.1200E+02
     -1.997  0.0000E+00  0.1200E+02
     -1.926  0.5659E-02  0.1200E+02
     -1.856  0.5763E-02  0.1200E+02
     -1.786  0.1163E-01  0.1200E+02
     -1.716  0.2345E-01  0.1200E+02
     -1.645  0.4721E-01  0.1201E+02
     -1.575  0.9484E-01  0.1201E+02
     -1.505  0.1895E+00  0.1203E+02
     -1.435  0.3750E+00  0.1205E+02
     -1.364  0.7273E+00  0.1210E+02
     -1.294  0.1358E+01  0.1220E+02
     -1.224  0.2363E+01  0.1237E+02
     -1.154  0.3658E+01  0.1262E+02
     -1.083  0.4727E+01  0.1295E+02
     -1.013  0.4885E+01  0.1330E+02
     -0.943  0.4016E+01  0.1358E+02
     -0.873  0.2748E+01  0.1377E+02
     -0.802  0.1703E+01  0.1389E+02
     -0.732  0.1108E+01  0.1397E+02
     -0.662  0.9264E+00  0.1404E+02
     -0.592  0.1142E+01  0.1412E+02
     -0.521  0.1806E+01  0.1424E+02
     -0.451  0.2931E+01  0.1445E+02
     -0.381  0.4337E+01  0.1475E+02
     -0.311  0.5456E+01  0.1514E+02
     -0.240  0.5798E+01  0.1554E+02
     -0.170  0.5750E+01  0.1595E+02
     -0.100  0.6338E+01  0.1639E+02
     -0.030  0.8380E+01  0.1698E+02
      0.041  0.1184E+02  0.1781E+02
      0.111  0.1550E+02  0.1890E+02
      0.181  0.1741E+02  0.2013E+02
      0.251  0.1662E+02  0.2129E+02
      0.322  0.1377E+02  0.2226E+02
      0.392  0.1007E+02  0.2297E+02
      0.462  0.6544E+01  0.2343E+02
      0.532  0.3832E+01  0.2370E+02
      0.603  0.2090E+01  0.2385E+02
      0.673  0.1090E+01  0.2392E+02
      0.743  0.5541E+00  0.2396E+02
      0.813  0.2782E+00  0.2398E+02
      0.884  0.1387E+00  0.2399E+02
      0.954  0.5583E-01  0.2400E+02
      1.024  0.2182E-01  0.2400E+02
      1.094  0.1082E-01  0.2400E+02
      1.165  0.0000E+00  0.2400E+02
      1.235  0.0000E+00  0.2400E+02
      1.305  0.0000E+00  0.2400E+02
