    6    6    1    1
  0.1333333E+04  0.2000000E-08  0.2000000E-08  0.2000000E-08  0.5000000E-15
  1.000000000000000E-004
  CAR 
 unknown system                          
     12      1     12
 
  0.0000000E+00  0.0000000E+00  0.0000000E+00  0.1000000E+01
    1      -18.769710   1.000000
    2      -14.191528   1.000000
    3      -11.412775   1.000000
    4      -10.151566   1.000000
    5       -8.467482   1.000000
    6       -6.748824   1.000000
    7       -1.074061   0.000000
    8       -0.322446   0.000000
    9        0.092907   0.000000
   10        0.132168   0.000000
   11        0.173938   0.000000
   12        0.305100   0.000000
