 vasp.5.4.1 24Jun15 (build Oct 10 2016 12:42:00) complex                        
  
 executed on           IFC91_ompi date 2018.05.20  21:00:02
 running on   20 total cores
 distrk:  each k-point on   20 cores,    1 groups
 distr:  one band on NCORES_PER_BAND=   4 cores,    5 groups


--------------------------------------------------------------------------------------------------------


 INCAR:
 POTCAR:    PAW_PBE Pt 04Feb2005                  
 POTCAR:    PAW_PBE C 08Apr2002                   
 POTCAR:    PAW_PBE H 15Jun2001                   
 POTCAR:    PAW_PBE Pt 04Feb2005                  
   VRHFIN =Pt: s1d9                                                             
   LEXCH  = PE                                                                  
   EATOM  =   729.1176 eV,   53.5886 Ry                                         
                                                                                
   TITEL  = PAW_PBE Pt 04Feb2005                                                
   LULTRA =        F    use ultrasoft PP ?                                      
   IUNSCR =        1    unscreen: 0-lin 1-nonlin 2-no                           
   RPACOR =    2.330    partial core radius                                     
   POMASS =  195.080; ZVAL   =   10.000    mass and valenz                      
   RCORE  =    2.600    outmost cutoff radius                                   
   RWIGS  =    2.750; RWIGS  =    1.455    wigner-seitz radius (au A)           
   ENMAX  =  230.283; ENMIN  =  172.712 eV                                      
   ICORE  =        3    local potential                                         
   LCOR   =        T    correct aug charges                                     
   LPAW   =        T    paw PP                                                  
   EAUG   =  358.966                                                            
   DEXC   =    0.000                                                            
   RMAX   =    2.658    core radius for proj-oper                               
   RAUG   =    1.300    factor for augmentation sphere                          
   RDEP   =    2.761    radius for radial grids                                 
   RDEPT  =    2.203    core radius for aug-charge                              
                                                                                
   Atomic configuration                                                         
   16 entries                                                                   
     n  l   j            E        occ.                                          
     1  0  0.50    -78401.1885   2.0000                                         
     2  0  0.50    -13770.7750   2.0000                                         
     2  1  1.50    -11931.0468   6.0000                                         
     3  0  0.50     -3234.7234   2.0000                                         
     3  1  1.50     -2699.2216   6.0000                                         
     3  2  2.50     -2119.5714  10.0000                                         
     4  0  0.50      -695.1528   2.0000                                         
     4  1  1.50      -519.6034   6.0000                                         
     4  2  2.50      -306.6786  10.0000                                         
     4  3  3.50       -70.1041  14.0000                                         
     5  0  0.50      -101.7747   2.0000                                         
     5  1  1.50       -55.9873   6.0000                                         
     5  2  2.50        -6.1423   9.0000                                         
     6  0  0.50        -5.6573   1.0000                                         
     6  1  1.50        -6.8029   0.0000                                         
     5  3  2.50        -1.3606   0.0000                                         
   Description                                                                  
     l       E           TYP  RCUT    TYP  RCUT                                 
     2     -6.1423404     23  2.500                                             
     2     -7.5029230     23  2.500                                             
     0     -5.6573207     23  2.500                                             
     0      0.7416693     23  2.500                                             
     1     -2.7211652     23  2.600                                             
     1     20.4087390     23  2.600                                             
     3     -1.3605826     23  2.500                                             
  local pseudopotential read in
  partial core-charges read in
  partial kinetic energy density read in
  atomic valenz-charges read in
  non local Contribution for L=           2  read in
    real space projection operators read in
  non local Contribution for L=           2  read in
    real space projection operators read in
  non local Contribution for L=           0  read in
    real space projection operators read in
  non local Contribution for L=           0  read in
    real space projection operators read in
  non local Contribution for L=           1  read in
    real space projection operators read in
  non local Contribution for L=           1  read in
    real space projection operators read in
    PAW grid and wavefunctions read in
 
   number of l-projection  operators is LMAX  =           6
   number of lm-projection operators is LMMAX =          18
 
 POTCAR:    PAW_PBE C 08Apr2002                   
   VRHFIN =C: s2p2                                                              
   LEXCH  = PE                                                                  
   EATOM  =   147.1560 eV,   10.8157 Ry                                         
                                                                                
   TITEL  = PAW_PBE C 08Apr2002                                                 
   LULTRA =        F    use ultrasoft PP ?                                      
   IUNSCR =        1    unscreen: 0-lin 1-nonlin 2-no                           
   RPACOR =    1.200    partial core radius                                     
   POMASS =   12.011; ZVAL   =    4.000    mass and valenz                      
   RCORE  =    1.500    outmost cutoff radius                                   
   RWIGS  =    1.630; RWIGS  =    0.863    wigner-seitz radius (au A)           
   ENMAX  =  400.000; ENMIN  =  300.000 eV                                      
   ICORE  =        2    local potential                                         
   LCOR   =        T    correct aug charges                                     
   LPAW   =        T    paw PP                                                  
   EAUG   =  644.873                                                            
   DEXC   =    0.000                                                            
   RMAX   =    1.529    core radius for proj-oper                               
   RAUG   =    1.300    factor for augmentation sphere                          
   RDEP   =    1.501    radius for radial grids                                 
   RDEPT  =    1.300    core radius for aug-charge                              
                                                                                
   Atomic configuration                                                         
    4 entries                                                                   
     n  l   j            E        occ.                                          
     1  0  0.50      -273.3789   2.0000                                         
     2  0  0.50       -13.7508   2.0000                                         
     2  1  0.50        -5.2854   2.0000                                         
     3  2  1.50        -5.4423   0.0000                                         
   Description                                                                  
     l       E           TYP  RCUT    TYP  RCUT                                 
     0    -13.7508458     23  1.200                                             
     0     -8.2022199     23  1.200                                             
     1     -5.2854383     23  1.500                                             
     1     34.0145650     23  1.500                                             
     2     -5.4423304      7  1.500                                             
  local pseudopotential read in
  partial core-charges read in
  partial kinetic energy density read in
  atomic valenz-charges read in
  non local Contribution for L=           0  read in
    real space projection operators read in
  non local Contribution for L=           0  read in
    real space projection operators read in
  non local Contribution for L=           1  read in
    real space projection operators read in
  non local Contribution for L=           1  read in
    real space projection operators read in
    PAW grid and wavefunctions read in
 
   number of l-projection  operators is LMAX  =           4
   number of lm-projection operators is LMMAX =           8
 
 POTCAR:    PAW_PBE H 15Jun2001                   
   VRHFIN =H: ultrasoft test                                                    
   LEXCH  = PE                                                                  
   EATOM  =    12.4884 eV,    0.9179 Ry                                         
                                                                                
   TITEL  = PAW_PBE H 15Jun2001                                                 
   LULTRA =        F    use ultrasoft PP ?                                      
   IUNSCR =        0    unscreen: 0-lin 1-nonlin 2-no                           
   RPACOR =    0.000    partial core radius                                     
   POMASS =    1.000; ZVAL   =    1.000    mass and valenz                      
   RCORE  =    1.100    outmost cutoff radius                                   
   RWIGS  =    0.700; RWIGS  =    0.370    wigner-seitz radius (au A)           
   ENMAX  =  250.000; ENMIN  =  200.000 eV                                      
   RCLOC  =    0.701    cutoff for local pot                                    
   LCOR   =        T    correct aug charges                                     
   LPAW   =        T    paw PP                                                  
   EAUG   =  400.000                                                            
   RMAX   =    1.123    core radius for proj-oper                               
   RAUG   =    1.200    factor for augmentation sphere                          
   RDEP   =    1.112    radius for radial grids                                 
   RDEPT  =    0.926    core radius for aug-charge                              
                                                                                
   Atomic configuration                                                         
    2 entries                                                                   
     n  l   j            E        occ.                                          
     1  0  0.50        -6.4927   1.0000                                         
     2  1  0.50        -3.4015   0.0000                                         
   Description                                                                  
     l       E           TYP  RCUT    TYP  RCUT                                 
     0     -6.4927494     23  1.100                                             
     0      6.8029130     23  1.100                                             
     1     -4.0817478     23  1.100                                             
  local pseudopotential read in
  atomic valenz-charges read in
  non local Contribution for L=           0  read in
    real space projection operators read in
  non local Contribution for L=           0  read in
    real space projection operators read in
  non local Contribution for L=           1  read in
    real space projection operators read in
    PAW grid and wavefunctions read in
 
   number of l-projection  operators is LMAX  =           3
   number of lm-projection operators is LMMAX =           5
 
 Optimization of the real space projectors (new method)

 maximal supplied QI-value         = 14.36
 optimisation between [QCUT,QGAM] = [ 10.20, 20.39] = [ 29.12,116.47] Ry 
 Optimized for a Real-space Cutoff    1.51 Angstroem

   l    n(q)    QCUT    max X(q) W(low)/X(q) W(high)/X(q)  e(spline) 
   2      8    10.197    66.195    0.45E-03    0.45E-03    0.14E-06
   2      8    10.197    64.643    0.46E-03    0.46E-03    0.14E-06
   0      9    10.197    95.520    0.15E-03    0.11E-03    0.54E-07
   0      9    10.197    63.403    0.15E-03    0.11E-03    0.52E-07
   1      9    10.197    19.961    0.13E-03    0.17E-03    0.77E-07
   1      9    10.197    13.289    0.10E-03    0.15E-03    0.67E-07
 Optimization of the real space projectors (new method)

 maximal supplied QI-value         = 25.13
 optimisation between [QCUT,QGAM] = [ 10.05, 20.36] = [ 28.30,116.06] Ry 
 Optimized for a Real-space Cutoff    1.30 Angstroem

   l    n(q)    QCUT    max X(q) W(low)/X(q) W(high)/X(q)  e(spline) 
   0      8    10.053   115.676    0.49E-03    0.72E-03    0.18E-06
   0      8    10.053    87.132    0.49E-03    0.71E-03    0.18E-06
   1      7    10.053     4.429    0.32E-03    0.31E-03    0.18E-06
   1      7    10.053     2.733    0.23E-03    0.19E-03    0.20E-06
 Optimization of the real space projectors (new method)

 maximal supplied QI-value         = 34.20
 optimisation between [QCUT,QGAM] = [  9.92, 20.18] = [ 27.55,114.04] Ry 
 Optimized for a Real-space Cutoff    1.26 Angstroem

   l    n(q)    QCUT    max X(q) W(low)/X(q) W(high)/X(q)  e(spline) 
   0      8     9.919    19.460    0.50E-03    0.23E-03    0.29E-06
   0      8     9.919    12.209    0.48E-03    0.23E-03    0.28E-06
   1      7     9.919     4.655    0.17E-03    0.75E-03    0.30E-06
  PAW_PBE Pt 04Feb2005                  :
 energy of atom  1       EATOM= -729.1176
 kinetic energy error for atom=    0.0056 (will be added to EATOM!!)
  PAW_PBE C 08Apr2002                   :
 energy of atom  2       EATOM= -147.1560
 kinetic energy error for atom=    0.0288 (will be added to EATOM!!)
  PAW_PBE H 15Jun2001                   :
 energy of atom  3       EATOM=  -12.4884
 kinetic energy error for atom=    0.0098 (will be added to EATOM!!)
 
 
 POSCAR: Pt  C  H                                
  positions in cartesian coordinates
  No initial velocities read in
 exchange correlation table for  LEXCH =        8
   RHO(1)=    0.500       N(1)  =     2000
   RHO(2)=  100.500       N(2)  =     4000

 VTST: version 3.1, (03/28/14)

 CHAIN: initializing optimizer
 
 OPT: Using VASP Dynamics algorithm
 CHAIN: Read ICHAIN            0
 
 POSCAR: Pt  C  H                                
  positions in cartesian coordinates
  No initial velocities read in
 


--------------------------------------------------------------------------------------------------------


 ion  position               nearest neighbor table
   1  0.000  0.000  0.343-  12 2.81  16 2.81  10 2.81   6 2.81   7 2.81   8 2.81   2 2.81   3 2.81
                             4 2.81
   2  0.333  0.000  0.343-  10 2.81  11 2.81  17 2.81   3 2.81   9 2.81   1 2.81   4 2.81   5 2.81
                             8 2.81
   3  0.667  0.000  0.343-  11 2.81  18 2.81  12 2.81   2 2.81   5 2.81   9 2.81   1 2.81   6 2.81
                             7 2.81
   4  0.000  0.333  0.343-  10 2.81  13 2.81  15 2.81   7 2.81   9 2.81   2 2.81   5 2.81   6 2.81
                             1 2.81
   5  0.333  0.333  0.343-  14 2.81  13 2.81  11 2.81   8 2.81   6 2.81   3 2.81   7 2.81   2 2.81
                             4 2.81
   6  0.667  0.333  0.343-  12 2.81  14 2.81  15 2.81   5 2.81   8 2.81   9 2.81   1 2.81   3 2.81
                             4 2.81
   7  0.000  0.667  0.343-  13 2.81  18 2.81  16 2.81   4 2.81   5 2.81   9 2.81   1 2.81   3 2.81
                             8 2.81
   8  0.333  0.667  0.343-  14 2.81  16 2.81  17 2.81   5 2.81   6 2.81   9 2.81   2 2.81   7 2.81
                             1 2.81
   9  0.667  0.667  0.343-  15 2.81  17 2.81  18 2.81   8 2.81   6 2.81   4 2.81   2 2.81   3 2.81
                             7 2.81
  10  0.111  0.111  0.448-  20 2.81   4 2.81   2 2.81   1 2.81  13 2.81  11 2.81  17 2.81  15 2.81
                            12 2.81  16 2.81  19 2.81  26 2.81
  11  0.444  0.111  0.448-  27 2.78  20 2.80   5 2.81   2 2.81   3 2.81  14 2.81  10 2.81  13 2.81
                            18 2.81  12 2.81  17 2.81  21 2.81
  12  0.778  0.111  0.448-  25 2.78  19 2.79   1 2.81   6 2.81   3 2.81  15 2.81  14 2.81  16 2.81
                            18 2.81  10 2.81  11 2.81  21 2.81
  13  0.111  0.444  0.448-  22 2.78  20 2.80   7 2.81   4 2.81   5 2.81  14 2.81  10 2.81  11 2.81
                            18 2.81  15 2.81  16 2.81  23 2.81
  14  0.444  0.444  0.448-  24 2.80  23 2.80  21 2.80   5 2.81   8 2.81   6 2.81  13 2.81  11 2.81
                            16 2.81  12 2.81  17 2.81  15 2.81
  15  0.778  0.444  0.448-  22 2.78  19 2.80   9 2.81   4 2.81   6 2.81  12 2.81  10 2.81  17 2.81
                            18 2.81  13 2.81  14 2.81  24 2.81
  16  0.111  0.778  0.448-  25 2.78  26 2.79   1 2.81   8 2.81   7 2.81  17 2.81  14 2.81  12 2.81
                            18 2.81  13 2.81  10 2.81  23 2.81
  17  0.444  0.778  0.448-  27 2.78  26 2.80   9 2.81   2 2.81   8 2.81  16 2.81  10 2.81  11 2.81
                            18 2.81  14 2.81  15 2.81  24 2.81
  18  0.778  0.778  0.448-  25 2.78  27 2.78  22 2.79   7 2.81   3 2.81   9 2.81  15 2.81  16 2.81
                            17 2.81  11 2.81  12 2.81  13 2.81
  19  0.887  0.223  0.552-  12 2.79  21 2.80  24 2.80  15 2.80  31 2.80  22 2.80  25 2.81  10 2.81
                            28 2.81  26 2.83  20 2.83  33 2.88
  20  0.223  0.223  0.552-  21 2.80  23 2.80  11 2.80  13 2.80  27 2.80  22 2.81  31 2.81  10 2.81
                            29 2.81  26 2.83  19 2.83  32 2.87
  21  0.555  0.223  0.552-  24 2.79  23 2.79  20 2.80  19 2.80  14 2.80  11 2.81  12 2.81  25 2.81
                            27 2.82  30 2.82  33 2.92  32 2.92
  22  0.889  0.555  0.551-  15 2.78  13 2.78  18 2.79  34 2.80  19 2.80  20 2.81  36 2.81  27 2.81
                            25 2.81  24 2.81  23 2.81  31 2.82
  23  0.223  0.555  0.552-  21 2.79  24 2.79  20 2.80  26 2.80  14 2.80  13 2.81  16 2.81  34 2.81
                            25 2.81  22 2.81  35 2.92  32 2.92
  24  0.555  0.555  0.552-  21 2.79  23 2.79  26 2.80  19 2.80  14 2.80  36 2.81  15 2.81  17 2.81
                            22 2.81  27 2.81  35 2.92  33 2.92
  25  0.889  0.889  0.551-  18 2.78  16 2.78  12 2.78  26 2.80  19 2.81  30 2.81  34 2.81  27 2.81
                            22 2.81  28 2.81  23 2.81  21 2.81
  26  0.223  0.887  0.552-  16 2.79  24 2.80  23 2.80  17 2.80  29 2.80  25 2.80  27 2.81  28 2.81
                            10 2.81  19 2.83  20 2.83  35 2.88
  27  0.555  0.889  0.551-  17 2.78  11 2.78  18 2.78  20 2.80  30 2.80  26 2.81  36 2.81  25 2.81
                            22 2.81  24 2.81  21 2.82  29 2.82
  28  1.000  0.999  0.656-  33 2.77  35 2.77  29 2.81  34 2.81  26 2.81  31 2.81  30 2.81  19 2.81
                            25 2.81
  29  0.333  0.999  0.656-  35 2.76  32 2.77  26 2.80  28 2.81  31 2.81  36 2.81  20 2.81  30 2.81
                            27 2.82
  30  0.669  0.995  0.656-  36 2.75  34 2.75  27 2.80  28 2.81  25 2.81  29 2.81  21 2.82  32 2.84
                            33 2.84
  31  1.000  0.332  0.656-  33 2.76  32 2.77  19 2.80  20 2.81  28 2.81  29 2.81  36 2.81  34 2.81
                            22 2.82
  32  0.330  0.329  0.663-  37 1.99  31 2.77  29 2.77  30 2.84  34 2.84  20 2.87  35 2.90  33 2.90
                            21 2.92  23 2.92
  33  0.674  0.329  0.663-  37 1.99  31 2.76  28 2.77  30 2.84  36 2.84  19 2.88  35 2.90  32 2.90
                            21 2.92  24 2.92
  34  0.996  0.668  0.656-  36 2.75  30 2.75  22 2.80  28 2.81  25 2.81  31 2.81  23 2.81  35 2.84
                            32 2.84
  35  0.330  0.673  0.663-  37 1.99  29 2.76  28 2.77  34 2.84  36 2.84  26 2.88  32 2.90  33 2.90
                            23 2.92  24 2.92
  36  0.669  0.668  0.656-  34 2.75  30 2.75  22 2.81  29 2.81  31 2.81  27 2.81  24 2.81  33 2.84
                            35 2.84
  37  0.444  0.443  0.712-  38 1.10  32 1.99  33 1.99  35 1.99
  38  0.444  0.443  0.763-  37 1.10
 
  LATTYP: Found a hexagonal cell.
 ALAT       =     8.4216417639
 C/A-ratio  =     2.5976219743
  
  Lattice vectors:
  
 A1 = (   4.2108208820,  -7.2933557091,   0.0000000000)
 A2 = (  -8.4216417639,   0.0000000000,   0.0000000000)
 A3 = (   0.0000000000,   0.0000000000, -21.8762417060)


Analysis of symmetry for initial positions (statically):
=====================================================================
 Subroutine PRICEL returns:
 Original cell was already a primitive cell.
 

 Routine SETGRP: Setting up the symmetry group for a 
 hexagonal supercell.


 Subroutine GETGRP returns: Found  1 space group operations
 (whereof  1 operations were pure point group operations)
 out of a pool of 24 trial point group operations.


The static configuration has the point symmetry C_1 .


Analysis of symmetry for dynamics (positions and initial velocities):
=====================================================================
 Subroutine PRICEL returns:
 Original cell was already a primitive cell.
 

 Routine SETGRP: Setting up the symmetry group for a 
 hexagonal supercell.


 Subroutine GETGRP returns: Found  1 space group operations
 (whereof  1 operations were pure point group operations)
 out of a pool of 24 trial point group operations.


The dynamic configuration has the point symmetry C_1 .


Analysis of constrained symmetry for selective dynamics:
=====================================================================
 Subroutine PRICEL returns:
 Original cell was already a primitive cell.
 

 Routine SETGRP: Setting up the symmetry group for a 
 hexagonal supercell.


 Subroutine GETGRP returns: Found  1 space group operations
 (whereof  1 operations were pure point group operations)
 out of a pool of 24 trial point group operations.


The constrained configuration has the point symmetry C_1 .
 
 
 KPOINTS: KPOINTS created by Atomic Simulation Env

Automatic generation of k-mesh.
Space group operators:
 irot       det(A)        alpha          n_x          n_y          n_z        tau_x        tau_y        tau_z
    1     1.000000     0.000000     1.000000     0.000000     0.000000     0.000000     0.000000     0.000000
 
 Subroutine IBZKPT returns following result:
 ===========================================
 
 Found     54 irreducible k-points:
 
 Following reciprocal coordinates:
            Coordinates               Weight
  0.083333  0.083333  0.000000     16.000000
  0.000000  0.083333  0.000000     16.000000
 -0.083333  0.000000  0.000000     16.000000
  0.250000  0.083333  0.000000     16.000000
  0.166667  0.250000  0.000000     16.000000
 -0.083333  0.166667  0.000000     16.000000
  0.166667 -0.083333  0.000000     16.000000
 -0.083333 -0.250000  0.000000     16.000000
 -0.250000 -0.166667  0.000000     16.000000
  0.416667  0.083333  0.000000     16.000000
  0.333333  0.416667  0.000000     16.000000
 -0.083333  0.333333  0.000000     16.000000
  0.333333 -0.083333  0.000000     16.000000
 -0.083333 -0.416667  0.000000     16.000000
 -0.416667 -0.333333  0.000000     16.000000
 -0.416667  0.083333  0.000000     16.000000
  0.500000 -0.416667  0.000000     16.000000
 -0.083333  0.500000  0.000000     16.000000
  0.500000 -0.083333  0.000000     16.000000
 -0.083333  0.416667  0.000000     16.000000
  0.416667  0.500000  0.000000     16.000000
 -0.250000  0.083333  0.000000     16.000000
 -0.333333 -0.250000  0.000000     16.000000
 -0.083333 -0.333333  0.000000     16.000000
 -0.333333 -0.083333  0.000000     16.000000
 -0.083333  0.250000  0.000000     16.000000
  0.250000  0.333333  0.000000     16.000000
 -0.083333  0.083333  0.000000     16.000000
 -0.166667 -0.083333  0.000000     16.000000
 -0.083333 -0.166667  0.000000     16.000000
  0.250000  0.250000  0.000000     16.000000
  0.000000  0.250000  0.000000     16.000000
 -0.250000  0.000000  0.000000     16.000000
  0.416667  0.250000  0.000000     16.000000
  0.166667  0.416667  0.000000     16.000000
 -0.250000  0.166667  0.000000     16.000000
  0.166667 -0.250000  0.000000     16.000000
 -0.250000 -0.416667  0.000000     16.000000
 -0.416667 -0.166667  0.000000     16.000000
 -0.416667  0.250000  0.000000     16.000000
  0.333333 -0.416667  0.000000     16.000000
 -0.250000  0.333333  0.000000     16.000000
  0.333333 -0.250000  0.000000     16.000000
 -0.250000  0.416667  0.000000     16.000000
  0.416667 -0.333333  0.000000     16.000000
 -0.250000  0.250000  0.000000     16.000000
  0.500000 -0.250000  0.000000     16.000000
 -0.250000  0.500000  0.000000     16.000000
  0.416667  0.416667  0.000000     16.000000
  0.000000  0.416667  0.000000     16.000000
 -0.416667 -0.000000  0.000000     16.000000
 -0.416667  0.416667  0.000000     16.000000
  0.166667 -0.416667  0.000000     16.000000
 -0.416667  0.166667  0.000000     16.000000
 
 Following cartesian coordinates:
            Coordinates               Weight
  0.009895  0.005713  0.000000     16.000000
  0.000000  0.011426  0.000000     16.000000
 -0.009895  0.005713  0.000000     16.000000
  0.029685 -0.005713  0.000000     16.000000
  0.019790  0.022852  0.000000     16.000000
 -0.009895  0.028565  0.000000     16.000000
  0.019790 -0.022852  0.000000     16.000000
 -0.009895 -0.028565  0.000000     16.000000
 -0.029685 -0.005713  0.000000     16.000000
  0.049476 -0.017139  0.000000     16.000000
  0.039581  0.034278  0.000000     16.000000
 -0.009895  0.051417  0.000000     16.000000
  0.039581 -0.034278  0.000000     16.000000
 -0.009895 -0.051417  0.000000     16.000000
 -0.049476 -0.017139  0.000000     16.000000
 -0.049476  0.039991  0.000000     16.000000
  0.059371 -0.091407  0.000000     16.000000
 -0.009895  0.074269  0.000000     16.000000
  0.059371 -0.045704  0.000000     16.000000
 -0.009895  0.062843  0.000000     16.000000
  0.049476  0.039991  0.000000     16.000000
 -0.029685  0.028565  0.000000     16.000000
 -0.039581 -0.011426  0.000000     16.000000
 -0.009895 -0.039991  0.000000     16.000000
 -0.039581  0.011426  0.000000     16.000000
 -0.009895  0.039991  0.000000     16.000000
  0.029685  0.028565  0.000000     16.000000
 -0.009895  0.017139  0.000000     16.000000
 -0.019790  0.000000  0.000000     16.000000
 -0.009895 -0.017139  0.000000     16.000000
  0.029685  0.017139  0.000000     16.000000
  0.000000  0.034278  0.000000     16.000000
 -0.029685  0.017139  0.000000     16.000000
  0.049476  0.005713  0.000000     16.000000
  0.019790  0.045704  0.000000     16.000000
 -0.029685  0.039991  0.000000     16.000000
  0.019790 -0.045704  0.000000     16.000000
 -0.029685 -0.039991  0.000000     16.000000
 -0.049476  0.005713  0.000000     16.000000
 -0.049476  0.062843  0.000000     16.000000
  0.039581 -0.079981  0.000000     16.000000
 -0.029685  0.062843  0.000000     16.000000
  0.039581 -0.057130  0.000000     16.000000
 -0.029685  0.074269  0.000000     16.000000
  0.049476 -0.074269  0.000000     16.000000
 -0.029685  0.051417  0.000000     16.000000
  0.059371 -0.068556  0.000000     16.000000
 -0.029685  0.085694  0.000000     16.000000
  0.049476  0.028565  0.000000     16.000000
  0.000000  0.057130  0.000000     16.000000
 -0.049476  0.028565  0.000000     16.000000
 -0.049476  0.085694  0.000000     16.000000
  0.019790 -0.068556  0.000000     16.000000
 -0.049476  0.051417  0.000000     16.000000
 


--------------------------------------------------------------------------------------------------------




 Dimension of arrays:
   k-points           NKPTS =     54   k-points in BZ     NKDIM =     54   number of bands    NBANDS=    220
   number of dos      NEDOS =    301   number of ions     NIONS =     38
   non local maximal  LDIM  =      6   non local SUM 2l+1 LMDIM =     18
   total plane-waves  NPLWV = 190512
   max r-space proj   IRMAX =   2088   max aug-charges    IRDMAX=   8786
   dimension x,y,z NGX =    42 NGY =   42 NGZ =  108
   dimension x,y,z NGXF=    84 NGYF=   84 NGZF=  216
   support grid    NGXF=    84 NGYF=   84 NGZF=  216
   ions per type =              36   1   1
 NGX,Y,Z   is equivalent  to a cutoff of   8.29,  8.29,  8.21 a.u.
 NGXF,Y,Z  is equivalent  to a cutoff of  16.58, 16.58, 16.41 a.u.


 I would recommend the setting:
   dimension x,y,z NGX =    41 NGY =   41 NGZ =  107
 SYSTEM =  unknown system                          
 POSCAR =  Pt  C  H                                

 Startparameter for this run:
   NWRITE =      2    write-flag & timer
   PREC   = normal    normal or accurate (medium, high low for compatibility)
   ISTART =      0    job   : 0-new  1-cont  2-samecut
   ICHARG =      2    charge: 1-file 2-atom 10-const
   ISPIN  =      1    spin polarized calculation?
   LNONCOLLINEAR =      F non collinear calculations
   LSORBIT =      F    spin-orbit coupling
   INIWAV =      1    electr: 0-lowe 1-rand  2-diag
   LASPH  =      F    aspherical Exc in radial PAW
   METAGGA=      F    non-selfconsistent MetaGGA calc.

 Electronic Relaxation 1
   ENCUT  =  400.0 eV  29.40 Ry    5.42 a.u.  13.73 13.73 35.67*2*pi/ulx,y,z
   ENINI  =  400.0     initial cutoff
   ENAUG  =  644.9 eV  augmentation charge cutoff
   NELM   =     60;   NELMIN=  4; NELMDL= -4     # of ELM steps 
   EDIFF  = 0.1E-05   stopping-criterion for ELM
   LREAL  =      T    real-space projection
   NLSPLINE    = F    spline interpolate recip. space projectors
   LCOMPAT=      F    compatible to vasp.4.4
   GGA_COMPAT  = T    GGA compatible to vasp.4.4-vasp.4.6
   LMAXPAW     = -100 max onsite density
   LMAXMIX     =    2 max onsite mixed and CHGCAR
   VOSKOWN=      0    Vosko Wilk Nusair interpolation
   ROPT   =   -0.00050  -0.00050  -0.00050
 Ionic relaxation
   EDIFFG = 0.1E-04   stopping-criterion for IOM
   NSW    =      0    number of steps for IOM
   NBLOCK =      1;   KBLOCK =      1    inner block; outer block 
   IBRION =     -1    ionic relax: 0-MD 1-quasi-New 2-CG
   NFREE  =      0    steps in history (QN), initial steepest desc. (CG)
   ISIF   =      2    stress and relaxation
   IWAVPR =     10    prediction:  0-non 1-charg 2-wave 3-comb
   ISYM   =      2    0-nonsym 1-usesym 2-fastsym
   LCORR  =      T    Harris-Foulkes like correction to forces

   POTIM  = 0.5000    time-step for ionic-motion
   TEIN   =    0.0    initial temperature
   TEBEG  =    0.0;   TEEND  =   0.0 temperature during run
   SMASS  =  -3.00    Nose mass-parameter (am)
   estimated Nose-frequenzy (Omega)   =  0.10E-29 period in steps =****** mass=  -0.162E-26a.u.
   SCALEE = 1.0000    scale energy and forces
   NPACO  =    256;   APACO  = 16.0  distance and # of slots for P.C.
   PSTRESS=    0.0 pullay stress

  Mass of Ions in am
   POMASS = 195.08 12.01  1.00
  Ionic Valenz
   ZVAL   =  10.00  4.00  1.00
  Atomic Wigner-Seitz radii
   RWIGS  =  -1.00 -1.00 -1.00
  virtual crystal weights 
   VCA    =   1.00  1.00  1.00
   NELECT =     365.0000    total number of electrons
   NUPDOWN=      -1.0000    fix difference up-down

 DOS related values:
   EMIN   =  10.00;   EMAX   =-10.00  energy-range for DOS
   EFERMI =   0.00
   ISMEAR =    -1;   SIGMA  =   0.10  broadening in eV -4-tet -1-fermi 0-gaus

 Electronic relaxation 2 (details)
   IALGO  =     68    algorithm
   LDIAG  =      T    sub-space diagonalisation (order eigenvalues)
   LSUBROT=      F    optimize rotation matrix (better conditioning)
   TURBO    =      0    0=normal 1=particle mesh
   IRESTART =      0    0=no restart 2=restart with 2 vectors
   NREBOOT  =      0    no. of reboots
   NMIN     =      0    reboot dimension
   EREF     =   0.00    reference energy to select bands
   IMIX   =      4    mixing-type and parameters
     AMIX     =   0.40;   BMIX     =  1.00
     AMIX_MAG =   1.60;   BMIX_MAG =  1.00
     AMIN     =   0.10
     WC   =   100.;   INIMIX=   1;  MIXPRE=   1;  MAXMIX= -45

 Intra band minimization:
   WEIMIN = 0.0000     energy-eigenvalue tresh-hold
   EBREAK =  0.11E-08  absolut break condition
   DEPER  =   0.30     relativ break condition  

   TIME   =   0.40     timestep for ELM

  volume/ion in A,a.u.               =      35.36       238.62
  Fermi-wavevector in a.u.,A,eV,Ry     =   1.060246  2.003575 15.294616  1.124123
  Thomas-Fermi vector in A             =   2.195621
 
 Write flags
   LWAVE  =      F    write WAVECAR
   LCHARG =      F    write CHGCAR
   LVTOT  =      F    write LOCPOT, total local potential
   LVHAR  =      F    write LOCPOT, Hartree potential only
   LELF   =      F    write electronic localiz. function (ELF)
   LORBIT =      0    0 simple, 1 ext, 2 COOP (PROOUT)


 Dipole corrections
   LMONO  =      F    monopole corrections only (constant potential shift)
   LDIPOL =      F    correct potential (dipole corrections)
   IDIPOL =      0    1-x, 2-y, 3-z, 4-all directions 
   EPSILON=  1.0000000 bulk dielectric constant

 Exchange correlation treatment:
   GGA     =    PE    GGA type
   LEXCH   =     8    internal setting for exchange type
   VOSKOWN=      0    Vosko Wilk Nusair interpolation
   LHFCALC =     F    Hartree Fock is set to
   LHFONE  =     F    Hartree Fock one center treatment
   AEXX    =    0.0000 exact exchange contribution

 Linear response parameters
   LEPSILON=     F    determine dielectric tensor
   LRPA    =     F    only Hartree local field effects (RPA)
   LNABLA  =     F    use nabla operator in PAW spheres
   LVEL    =     F    velocity operator in full k-point grid
   LINTERFAST=   F  fast interpolation
   KINTER  =     0    interpolate to denser k-point grid
   CSHIFT  =0.1000    complex shift for real part using Kramers Kronig
   OMEGAMAX=  -1.0    maximum frequency
   DEG_THRESHOLD= 0.2000000E-02 threshold for treating states as degnerate
   RTIME   =    0.100 relaxation time in fs

 Orbital magnetization related:
   ORBITALMAG=     F  switch on orbital magnetization
   LCHIMAG   =     F  perturbation theory with respect to B field
   DQ        =  0.001000  dq finite difference perturbation B field



--------------------------------------------------------------------------------------------------------


 Static calculation
 charge density and potential will be updated during run
 non-spin polarized calculation
 RMM-DIIS sequential band-by-band and
  variant of blocked Davidson during initial phase
 perform sub-space diagonalisation
    before iterative eigenvector-optimisation
 modified Broyden-mixing scheme, WC =      100.0
 initial mixing is a Kerker type mixing with AMIX =  0.4000 and BMIX =      1.0000
 Hartree-type preconditioning will be used
 using additional bands           37
 real space projection scheme for non local part
 use partial core corrections
 calculate Harris-corrections to forces 
   (improved forces if not selfconsistent)
 use gradient corrections 
 use of overlap-Matrix (Vanderbilt PP)
 Fermi-smearing in eV        SIGMA  =   0.10


--------------------------------------------------------------------------------------------------------


  energy-cutoff  :      400.00
  volume of cell :     1343.68
      direct lattice vectors                 reciprocal lattice vectors
     8.421641764  0.000000000  0.000000000     0.118741693 -0.068555548  0.000000000
     4.210820882  7.293355709  0.000000000     0.000000000  0.137111097  0.000000000
     0.000000000  0.000000000 21.876241706     0.000000000  0.000000000  0.045711691

  length of vectors
     8.421641764  8.421641764 21.876241706     0.137111097  0.137111097  0.045711691


 
 k-points in units of 2pi/SCALE and weight: KPOINTS created by Atomic Simulation Env
   0.00989514  0.00571296  0.00000000       0.019
   0.00000000  0.01142592  0.00000000       0.019
  -0.00989514  0.00571296  0.00000000       0.019
   0.02968542 -0.00571296  0.00000000       0.019
   0.01979028  0.02285185  0.00000000       0.019
  -0.00989514  0.02856481  0.00000000       0.019
   0.01979028 -0.02285185  0.00000000       0.019
  -0.00989514 -0.02856481  0.00000000       0.019
  -0.02968542 -0.00571296  0.00000000       0.019
   0.04947571 -0.01713889  0.00000000       0.019
   0.03958056  0.03427777  0.00000000       0.019
  -0.00989514  0.05141666  0.00000000       0.019
   0.03958056 -0.03427777  0.00000000       0.019
  -0.00989514 -0.05141666  0.00000000       0.019
  -0.04947571 -0.01713889  0.00000000       0.019
  -0.04947571  0.03999074  0.00000000       0.019
   0.05937085 -0.09140740  0.00000000       0.019
  -0.00989514  0.07426851  0.00000000       0.019
   0.05937085 -0.04570370  0.00000000       0.019
  -0.00989514  0.06284259  0.00000000       0.019
   0.04947571  0.03999074  0.00000000       0.019
  -0.02968542  0.02856481  0.00000000       0.019
  -0.03958056 -0.01142592  0.00000000       0.019
  -0.00989514 -0.03999074  0.00000000       0.019
  -0.03958056  0.01142592  0.00000000       0.019
  -0.00989514  0.03999074  0.00000000       0.019
   0.02968542  0.02856481  0.00000000       0.019
  -0.00989514  0.01713889  0.00000000       0.019
  -0.01979028  0.00000000  0.00000000       0.019
  -0.00989514 -0.01713889  0.00000000       0.019
   0.02968542  0.01713889  0.00000000       0.019
   0.00000000  0.03427777  0.00000000       0.019
  -0.02968542  0.01713889  0.00000000       0.019
   0.04947571  0.00571296  0.00000000       0.019
   0.01979028  0.04570370  0.00000000       0.019
  -0.02968542  0.03999074  0.00000000       0.019
   0.01979028 -0.04570370  0.00000000       0.019
  -0.02968542 -0.03999074  0.00000000       0.019
  -0.04947571  0.00571296  0.00000000       0.019
  -0.04947571  0.06284259  0.00000000       0.019
   0.03958056 -0.07998147  0.00000000       0.019
  -0.02968542  0.06284259  0.00000000       0.019
   0.03958056 -0.05712962  0.00000000       0.019
  -0.02968542  0.07426851  0.00000000       0.019
   0.04947571 -0.07426851  0.00000000       0.019
  -0.02968542  0.05141666  0.00000000       0.019
   0.05937085 -0.06855555  0.00000000       0.019
  -0.02968542  0.08569444  0.00000000       0.019
   0.04947571  0.02856481  0.00000000       0.019
   0.00000000  0.05712962  0.00000000       0.019
  -0.04947571  0.02856481  0.00000000       0.019
  -0.04947571  0.08569444  0.00000000       0.019
   0.01979028 -0.06855555  0.00000000       0.019
  -0.04947571  0.05141666  0.00000000       0.019
 
 k-points in reciprocal lattice and weights: KPOINTS created by Atomic Simulation Env
   0.08333333  0.08333333  0.00000000       0.019
   0.00000000  0.08333333  0.00000000       0.019
  -0.08333333  0.00000000  0.00000000       0.019
   0.25000000  0.08333333  0.00000000       0.019
   0.16666667  0.25000000  0.00000000       0.019
  -0.08333333  0.16666667  0.00000000       0.019
   0.16666667 -0.08333333  0.00000000       0.019
  -0.08333333 -0.25000000  0.00000000       0.019
  -0.25000000 -0.16666667  0.00000000       0.019
   0.41666667  0.08333333  0.00000000       0.019
   0.33333333  0.41666667  0.00000000       0.019
  -0.08333333  0.33333333  0.00000000       0.019
   0.33333333 -0.08333333  0.00000000       0.019
  -0.08333333 -0.41666667  0.00000000       0.019
  -0.41666667 -0.33333333  0.00000000       0.019
  -0.41666667  0.08333333  0.00000000       0.019
   0.50000000 -0.41666667  0.00000000       0.019
  -0.08333333  0.50000000  0.00000000       0.019
   0.50000000 -0.08333333  0.00000000       0.019
  -0.08333333  0.41666667  0.00000000       0.019
   0.41666667  0.50000000  0.00000000       0.019
  -0.25000000  0.08333333  0.00000000       0.019
  -0.33333333 -0.25000000  0.00000000       0.019
  -0.08333333 -0.33333333  0.00000000       0.019
  -0.33333333 -0.08333333  0.00000000       0.019
  -0.08333333  0.25000000  0.00000000       0.019
   0.25000000  0.33333333  0.00000000       0.019
  -0.08333333  0.08333333  0.00000000       0.019
  -0.16666667 -0.08333333  0.00000000       0.019
  -0.08333333 -0.16666667  0.00000000       0.019
   0.25000000  0.25000000  0.00000000       0.019
   0.00000000  0.25000000  0.00000000       0.019
  -0.25000000  0.00000000  0.00000000       0.019
   0.41666667  0.25000000  0.00000000       0.019
   0.16666667  0.41666667  0.00000000       0.019
  -0.25000000  0.16666667  0.00000000       0.019
   0.16666667 -0.25000000  0.00000000       0.019
  -0.25000000 -0.41666667  0.00000000       0.019
  -0.41666667 -0.16666667  0.00000000       0.019
  -0.41666667  0.25000000  0.00000000       0.019
   0.33333333 -0.41666667  0.00000000       0.019
  -0.25000000  0.33333333  0.00000000       0.019
   0.33333333 -0.25000000  0.00000000       0.019
  -0.25000000  0.41666667  0.00000000       0.019
   0.41666667 -0.33333333  0.00000000       0.019
  -0.25000000  0.25000000  0.00000000       0.019
   0.50000000 -0.25000000  0.00000000       0.019
  -0.25000000  0.50000000  0.00000000       0.019
   0.41666667  0.41666667  0.00000000       0.019
   0.00000000  0.41666667  0.00000000       0.019
  -0.41666667 -0.00000000  0.00000000       0.019
  -0.41666667  0.41666667  0.00000000       0.019
   0.16666667 -0.41666667  0.00000000       0.019
  -0.41666667  0.16666667  0.00000000       0.019
 
 position of ions in fractional coordinates (direct lattice) 
   0.00000000  0.00000000  0.34283768
   0.33333333  0.00000000  0.34283768
   0.66666667  0.00000000  0.34283768
   0.00000000  0.33333333  0.34283768
   0.33333333  0.33333333  0.34283768
   0.66666667  0.33333333  0.34283768
   0.00000000  0.66666667  0.34283768
   0.33333333  0.66666667  0.34283768
   0.66666667  0.66666667  0.34283768
   0.11111111  0.11111111  0.44761256
   0.44444444  0.11111111  0.44761256
   0.77777778  0.11111111  0.44761256
   0.11111111  0.44444444  0.44761256
   0.44444444  0.44444444  0.44761256
   0.77777778  0.44444444  0.44761256
   0.11111111  0.77777778  0.44761256
   0.44444444  0.77777778  0.44761256
   0.77777778  0.77777778  0.44761256
   0.88706171  0.22270836  0.55197431
   0.22317109  0.22268400  0.55197526
   0.55496162  0.22299928  0.55240074
   0.88896641  0.55474178  0.55101925
   0.22327025  0.55458533  0.55240215
   0.55491142  0.55465699  0.55243798
   0.88900367  0.88864281  0.55103160
   0.22302540  0.88667432  0.55195033
   0.55512154  0.88865425  0.55101056
   0.99986853  0.99886464  0.65645076
   0.33309637  0.99874989  0.65640106
   0.66851218  0.99492351  0.65622665
   0.99990558  0.33207826  0.65641379
   0.32958538  0.32879713  0.66263379
   0.67372077  0.32879151  0.66272622
   0.99556726  0.66782838  0.65619516
   0.32967796  0.67257302  0.66273802
   0.66874887  0.66789261  0.65620526
   0.44434811  0.44303213  0.71219407
   0.44430597  0.44280093  0.76251615
 
 position of ions in cartesian coordinates  (Angst):
   0.00000000  0.00000000  7.50000000
   2.80721392  0.00000000  7.50000000
   5.61442784  0.00000000  7.50000000
   1.40360696  2.43111857  7.50000000
   4.21082088  2.43111857  7.50000000
   7.01803480  2.43111857  7.50000000
   2.80721392  4.86223714  7.50000000
   5.61442784  4.86223714  7.50000000
   8.42164176  4.86223714  7.50000000
   1.40360696  0.81037286  9.79208057
   4.21082088  0.81037286  9.79208057
   7.01803480  0.81037286  9.79208057
   2.80721392  3.24149143  9.79208057
   5.61442784  3.24149143  9.79208057
   8.42164176  3.24149143  9.79208057
   4.21082088  5.67261000  9.79208057
   7.01803480  5.67261000  9.79208057
   9.82524872  5.67261000  9.79208057
   8.40830099  1.62429130 12.07512336
   2.81714937  1.62411362 12.07514418
   5.61269800  1.62641310 12.08445213
   9.82247493  4.04592914 12.05423020
   4.21556156  4.04478810 12.08448289
   7.00882647  4.04531075 12.08526684
  11.22878613  6.48118809 12.05450045
   5.61186676  6.46683125 12.07459881
   8.41699867  6.48127157 12.05404024
  12.62657466  7.28507509 14.36067552
   7.01077517  7.28423823 14.35958826
   9.81941474  7.25633103 14.35577281
   9.81916870  2.42196490 14.35986679
   4.16015584  2.39803443 14.49593700
   7.05831709  2.39799341 14.49795906
  11.19641655  4.87070996 14.35508389
   5.60851422  4.90531430 14.49821712
   8.44433961  4.87117840 14.35530498
   5.60766955  3.23119092 15.58012953
   5.60634113  3.22950467 16.68098754
 


--------------------------------------------------------------------------------------------------------


 k-point  1 :   0.0833 0.0833 0.0000  plane waves:   24413
 k-point  2 :   0.0000 0.0833 0.0000  plane waves:   24413
 k-point  3 :  -0.0833 0.0000 0.0000  plane waves:   24413
 k-point  4 :   0.2500 0.0833 0.0000  plane waves:   24407
 k-point  5 :   0.1667 0.2500 0.0000  plane waves:   24407
 k-point  6 :  -0.0833 0.1667 0.0000  plane waves:   24407
 k-point  7 :   0.1667-0.0833 0.0000  plane waves:   24407
 k-point  8 :  -0.0833-0.2500 0.0000  plane waves:   24407
 k-point  9 :  -0.2500-0.1667 0.0000  plane waves:   24407
 k-point 10 :   0.4167 0.0833 0.0000  plane waves:   24416
 k-point 11 :   0.3333 0.4167 0.0000  plane waves:   24416
 k-point 12 :  -0.0833 0.3333 0.0000  plane waves:   24416
 k-point 13 :   0.3333-0.0833 0.0000  plane waves:   24416
 k-point 14 :  -0.0833-0.4167 0.0000  plane waves:   24416
 k-point 15 :  -0.4167-0.3333 0.0000  plane waves:   24416
 k-point 16 :  -0.4167 0.0833 0.0000  plane waves:   24418
 k-point 17 :   0.5000-0.4167 0.0000  plane waves:   24418
 k-point 18 :  -0.0833 0.5000 0.0000  plane waves:   24418
 k-point 19 :   0.5000-0.0833 0.0000  plane waves:   24418
 k-point 20 :  -0.0833 0.4167 0.0000  plane waves:   24418
 k-point 21 :   0.4167 0.5000 0.0000  plane waves:   24418
 k-point 22 :  -0.2500 0.0833 0.0000  plane waves:   24416
 k-point 23 :  -0.3333-0.2500 0.0000  plane waves:   24416
 k-point 24 :  -0.0833-0.3333 0.0000  plane waves:   24416
 k-point 25 :  -0.3333-0.0833 0.0000  plane waves:   24416
 k-point 26 :  -0.0833 0.2500 0.0000  plane waves:   24416
 k-point 27 :   0.2500 0.3333 0.0000  plane waves:   24416
 k-point 28 :  -0.0833 0.0833 0.0000  plane waves:   24411
 k-point 29 :  -0.1667-0.0833 0.0000  plane waves:   24411
 k-point 30 :  -0.0833-0.1667 0.0000  plane waves:   24411
 k-point 31 :   0.2500 0.2500 0.0000  plane waves:   24440
 k-point 32 :   0.0000 0.2500 0.0000  plane waves:   24440
 k-point 33 :  -0.2500 0.0000 0.0000  plane waves:   24440
 k-point 34 :   0.4167 0.2500 0.0000  plane waves:   24406
 k-point 35 :   0.1667 0.4167 0.0000  plane waves:   24406
 k-point 36 :  -0.2500 0.1667 0.0000  plane waves:   24406
 k-point 37 :   0.1667-0.2500 0.0000  plane waves:   24406
 k-point 38 :  -0.2500-0.4167 0.0000  plane waves:   24406
 k-point 39 :  -0.4167-0.1667 0.0000  plane waves:   24406
 k-point 40 :  -0.4167 0.2500 0.0000  plane waves:   24402
 k-point 41 :   0.3333-0.4167 0.0000  plane waves:   24402
 k-point 42 :  -0.2500 0.3333 0.0000  plane waves:   24402
 k-point 43 :   0.3333-0.2500 0.0000  plane waves:   24402
 k-point 44 :  -0.2500 0.4167 0.0000  plane waves:   24402
 k-point 45 :   0.4167-0.3333 0.0000  plane waves:   24402
 k-point 46 :  -0.2500 0.2500 0.0000  plane waves:   24390
 k-point 47 :   0.5000-0.2500 0.0000  plane waves:   24390
 k-point 48 :  -0.2500 0.5000 0.0000  plane waves:   24390
 k-point 49 :   0.4167 0.4167 0.0000  plane waves:   24430
 k-point 50 :   0.0000 0.4167 0.0000  plane waves:   24430
 k-point 51 :  -0.4167-0.0000 0.0000  plane waves:   24430
 k-point 52 :  -0.4167 0.4167 0.0000  plane waves:   24404
 k-point 53 :   0.1667-0.4167 0.0000  plane waves:   24404
 k-point 54 :  -0.4167 0.1667 0.0000  plane waves:   24404

 maximum and minimum number of plane-waves per node :      6146     6048

 maximum number of plane-waves:     24440
 maximum index in each direction: 
   IXMAX=   14   IYMAX=   14   IZMAX=   35
   IXMIN=  -14   IYMIN=  -14   IZMIN=  -35

 WARNING: aliasing errors must be expected set NGX to  58 to avoid them
 WARNING: aliasing errors must be expected set NGY to  58 to avoid them
 WARNING: aliasing errors must be expected set NGZ to 142 to avoid them
 aliasing errors are usually negligible using standard VASP settings
 and one can safely disregard these warnings

 real space projection operators:
  total allocation   :      10130.01 KBytes
  max/ min on nodes  :       2673.69       2415.71


 parallel 3D FFT for wavefunctions:
    minimum data exchange during FFTs selected (reduces bandwidth)
 parallel 3D FFT for charge:
    minimum data exchange during FFTs selected (reduces bandwidth)


 total amount of memory used by VASP on root node   286431. kBytes
========================================================================

   base      :      30000. kBytes
   nonlr-proj:       4620. kBytes
   fftplans  :       4497. kBytes
   grid      :       7849. kBytes
   one-center:        155. kBytes
   wavefun   :     239310. kBytes
 
     INWAV:  cpu time    0.0000: real time    0.0000
 Broyden mixing: mesh for mixing (old mesh)
   NGX = 27   NGY = 27   NGZ = 71
  (NGX  = 84   NGY  = 84   NGZ  =216)
  gives a total of  51759 points

 initial charge density was supplied:
 charge density of overlapping atoms calculated
 number of electron     365.0000000 magnetization 
 keeping initial charge density in first step


--------------------------------------------------------------------------------------------------------


 Maximum index for non-local projection operator          591
 Maximum index for augmentation-charges          871 (set IRDMAX)


--------------------------------------------------------------------------------------------------------


 First call to EWALD:  gamma=   0.161
 Maximum number of real-space cells 4x 4x 2
 Maximum number of reciprocal cells 2x 2x 5

 FEWALD executed in parallel
    FEWALD:  cpu time    0.0020: real time    0.0027


----------------------------------------- Iteration    1(   1)  ---------------------------------------


    POTLOK:  cpu time    0.6639: real time    0.6796
    SETDIJ:  cpu time    0.0270: real time    0.0267
     EDDAV:  cpu time   67.8247: real time   68.2205
       DOS:  cpu time    0.0030: real time    0.0025
    --------------------------------------------
      LOOP:  cpu time   68.5206: real time   68.9527

 eigenvalue-minimisations  : 23810
 total energy-change (2. order) : 0.2186518E+04  (-0.1440434E+05)
 number of electron     365.0000000 magnetization 
 augmentation part      365.0000000 magnetization 

 Free energy of the ion-electron system (eV)
  ---------------------------------------------------
  alpha Z        PSCENC =       935.82383185
  Ewald energy   TEWEN  =     92816.60391968
  -Hartree energ DENC   =   -121046.36250965
  -exchange      EXHF   =         0.00000000
  -V(xc)+E(xc)   XCENC  =       136.57391854
  PAW double counting   =     25171.10334923   -24153.48497674
  entropy T*S    EENTRO =        -0.53877773
  eigenvalues    EBANDS =      1919.16327459
  atomic energy  EATOM  =     26407.63612164
  Solvation  Ediel_sol  =         0.00000000
  ---------------------------------------------------
  free energy    TOTEN  =      2186.51815141 eV

  energy without entropy =     2187.05692914  energy(sigma->0) =     2186.78754028


--------------------------------------------------------------------------------------------------------




----------------------------------------- Iteration    1(   2)  ---------------------------------------


     EDDAV:  cpu time   78.0271: real time   78.2337
       DOS:  cpu time    0.0030: real time    0.0032
    --------------------------------------------
      LOOP:  cpu time   78.0331: real time   78.2908

 eigenvalue-minimisations  : 27900
 total energy-change (2. order) :-0.2262401E+04  (-0.2094748E+04)
 number of electron     365.0000000 magnetization 
 augmentation part      365.0000000 magnetization 

 Free energy of the ion-electron system (eV)
  ---------------------------------------------------
  alpha Z        PSCENC =       935.82383185
  Ewald energy   TEWEN  =     92816.60391968
  -Hartree energ DENC   =   -121046.36250965
  -exchange      EXHF   =         0.00000000
  -V(xc)+E(xc)   XCENC  =       136.57391854
  PAW double counting   =     25171.10334923   -24153.48497674
  entropy T*S    EENTRO =        -1.04641853
  eigenvalues    EBANDS =      -342.73039132
  atomic energy  EATOM  =     26407.63612164
  Solvation  Ediel_sol  =         0.00000000
  ---------------------------------------------------
  free energy    TOTEN  =       -75.88315530 eV

  energy without entropy =      -74.83673677  energy(sigma->0) =      -75.35994603


--------------------------------------------------------------------------------------------------------




----------------------------------------- Iteration    1(   3)  ---------------------------------------


     EDDAV:  cpu time   79.7269: real time   79.7063
       DOS:  cpu time    0.0040: real time    0.0042
    --------------------------------------------
      LOOP:  cpu time   79.7329: real time   79.7556

 eigenvalue-minimisations  : 28580
 total energy-change (2. order) :-0.1555414E+03  (-0.1403141E+03)
 number of electron     365.0000000 magnetization 
 augmentation part      365.0000000 magnetization 

 Free energy of the ion-electron system (eV)
  ---------------------------------------------------
  alpha Z        PSCENC =       935.82383185
  Ewald energy   TEWEN  =     92816.60391968
  -Hartree energ DENC   =   -121046.36250965
  -exchange      EXHF   =         0.00000000
  -V(xc)+E(xc)   XCENC  =       136.57391854
  PAW double counting   =     25171.10334923   -24153.48497674
  entropy T*S    EENTRO =        -1.86161639
  eigenvalues    EBANDS =      -497.45662162
  atomic energy  EATOM  =     26407.63612164
  Solvation  Ediel_sol  =         0.00000000
  ---------------------------------------------------
  free energy    TOTEN  =      -231.42458346 eV

  energy without entropy =     -229.56296707  energy(sigma->0) =     -230.49377526


--------------------------------------------------------------------------------------------------------




----------------------------------------- Iteration    1(   4)  ---------------------------------------


     EDDAV:  cpu time   83.6763: real time   84.6596
       DOS:  cpu time    0.0040: real time    0.0040
    CHARGE:  cpu time    2.2967: real time    2.3509
    MIXING:  cpu time    0.0020: real time    0.0022
    --------------------------------------------
      LOOP:  cpu time   85.9809: real time   87.0302

 eigenvalue-minimisations  : 30180
 total energy-change (2. order) :-0.6736907E+01  (-0.6499103E+01)
 number of electron     364.9999994 magnetization 
 augmentation part      104.6053146 magnetization 

 Broyden mixing:
  rms(total) = 0.63878E+01    rms(broyden)= 0.63878E+01
  rms(prec ) = 0.64932E+01
  weight for this iteration     100.00

 Free energy of the ion-electron system (eV)
  ---------------------------------------------------
  alpha Z        PSCENC =       935.82383185
  Ewald energy   TEWEN  =     92816.60391968
  -Hartree energ DENC   =   -121046.36250965
  -exchange      EXHF   =         0.00000000
  -V(xc)+E(xc)   XCENC  =       136.57391854
  PAW double counting   =     25171.10334923   -24153.48497674
  entropy T*S    EENTRO =        -1.92410183
  eigenvalues    EBANDS =      -504.13104272
  atomic energy  EATOM  =     26407.63612164
  Solvation  Ediel_sol  =         0.00000000
  ---------------------------------------------------
  free energy    TOTEN  =      -238.16148999 eV

  energy without entropy =     -236.23738817  energy(sigma->0) =     -237.19943908


--------------------------------------------------------------------------------------------------------




----------------------------------------- Iteration    1(   5)  ---------------------------------------


    POTLOK:  cpu time    1.6847: real time    1.7370
    SETDIJ:  cpu time    0.1390: real time    0.1390
    EDDIAG:  cpu time   13.3630: real time   13.3821
  RMM-DIIS:  cpu time   28.4727: real time   28.6636
    ORTHCH:  cpu time    2.8846: real time    2.8945
       DOS:  cpu time    0.0040: real time    0.0039
    CHARGE:  cpu time    2.3456: real time    2.3439
    MIXING:  cpu time    0.0330: real time    0.0331
    --------------------------------------------
      LOOP:  cpu time   48.9276: real time   49.2953

 eigenvalue-minimisations  : 25116
 total energy-change (2. order) : 0.1046018E+02  (-0.5078793E+01)
 number of electron     365.0000019 magnetization 
 augmentation part      111.1358251 magnetization 

 Broyden mixing:
  rms(total) = 0.42614E+01    rms(broyden)= 0.42613E+01
  rms(prec ) = 0.45200E+01
  weight for this iteration     100.00

 eigenvalues of (default mixing * dielectric matrix)
  average eigenvalue GAMMA=   1.3447
  1.3447

 Free energy of the ion-electron system (eV)
  ---------------------------------------------------
  alpha Z        PSCENC =       935.82383185
  Ewald energy   TEWEN  =     92816.60391968
  -Hartree energ DENC   =   -120625.56069830
  -exchange      EXHF   =         0.00000000
  -V(xc)+E(xc)   XCENC  =       127.50636491
  PAW double counting   =     27895.43175300   -26930.68463497
  entropy T*S    EENTRO =        -2.00362924
  eigenvalues    EBANDS =      -852.45434033
  atomic energy  EATOM  =     26407.63612164
  Solvation  Ediel_sol  =         0.00000000
  ---------------------------------------------------
  free energy    TOTEN  =      -227.70131177 eV

  energy without entropy =     -225.69768253  energy(sigma->0) =     -226.69949715


--------------------------------------------------------------------------------------------------------




----------------------------------------- Iteration    1(   6)  ---------------------------------------


    POTLOK:  cpu time    0.0540: real time    0.0547
    SETDIJ:  cpu time    0.0080: real time    0.0080
    EDDIAG:  cpu time   10.5584: real time   10.5901
  RMM-DIIS:  cpu time   28.0017: real time   28.0653
    ORTHCH:  cpu time    2.9396: real time    2.9686
       DOS:  cpu time    0.0030: real time    0.0037
    CHARGE:  cpu time    2.3616: real time    2.3600
    MIXING:  cpu time    0.0020: real time    0.0022
    --------------------------------------------
      LOOP:  cpu time   43.9443: real time   44.0958

 eigenvalue-minimisations  : 25133
 total energy-change (2. order) :-0.4296257E+02  (-0.7490529E+01)
 number of electron     364.9999962 magnetization 
 augmentation part      109.0298906 magnetization 

 Broyden mixing:
  rms(total) = 0.56469E+01    rms(broyden)= 0.56467E+01
  rms(prec ) = 0.69481E+01
  weight for this iteration     100.00

 eigenvalues of (default mixing * dielectric matrix)
  average eigenvalue GAMMA=   1.1205
  1.9605  0.2806

 Free energy of the ion-electron system (eV)
  ---------------------------------------------------
  alpha Z        PSCENC =       935.82383185
  Ewald energy   TEWEN  =     92816.60391968
  -Hartree energ DENC   =   -120924.63920872
  -exchange      EXHF   =         0.00000000
  -V(xc)+E(xc)   XCENC  =       124.85089351
  PAW double counting   =     29888.85916294   -28945.45632265
  entropy T*S    EENTRO =        -1.17403955
  eigenvalues    EBANDS =      -573.16823980
  atomic energy  EATOM  =     26407.63612164
  Solvation  Ediel_sol  =         0.00000000
  ---------------------------------------------------
  free energy    TOTEN  =      -270.66388111 eV

  energy without entropy =     -269.48984156  energy(sigma->0) =     -270.07686133


--------------------------------------------------------------------------------------------------------




----------------------------------------- Iteration    1(   7)  ---------------------------------------


    POTLOK:  cpu time    0.2970: real time    0.2978
    SETDIJ:  cpu time    0.0080: real time    0.0079
    EDDIAG:  cpu time   10.1964: real time   10.5321
  RMM-DIIS:  cpu time   28.2757: real time   28.6642
    ORTHCH:  cpu time    2.8796: real time    2.9239
       DOS:  cpu time    0.0030: real time    0.0038
    CHARGE:  cpu time    2.2907: real time    2.3509
    MIXING:  cpu time    0.0020: real time    0.0024
    --------------------------------------------
      LOOP:  cpu time   43.9553: real time   44.8173

 eigenvalue-minimisations  : 24428
 total energy-change (2. order) : 0.4165415E+02  (-0.2981179E+01)
 number of electron     364.9999982 magnetization 
 augmentation part      112.2273051 magnetization 

 Broyden mixing:
  rms(total) = 0.23776E+01    rms(broyden)= 0.23774E+01
  rms(prec ) = 0.30116E+01
  weight for this iteration     100.00

 eigenvalues of (default mixing * dielectric matrix)
  average eigenvalue GAMMA=   0.9395
  2.0504  0.4492  0.3189

 Free energy of the ion-electron system (eV)
  ---------------------------------------------------
  alpha Z        PSCENC =       935.82383185
  Ewald energy   TEWEN  =     92816.60391968
  -Hartree energ DENC   =   -120672.10228773
  -exchange      EXHF   =         0.00000000
  -V(xc)+E(xc)   XCENC  =       123.30418114
  PAW double counting   =     31465.78614768   -30543.40844194
  entropy T*S    EENTRO =        -1.69923290
  eigenvalues    EBANDS =      -760.95397104
  atomic energy  EATOM  =     26407.63612164
  Solvation  Ediel_sol  =         0.00000000
  ---------------------------------------------------
  free energy    TOTEN  =      -229.00973161 eV

  energy without entropy =     -227.31049872  energy(sigma->0) =     -228.16011517


--------------------------------------------------------------------------------------------------------




----------------------------------------- Iteration    1(   8)  ---------------------------------------


    POTLOK:  cpu time    0.0580: real time    0.0584
    SETDIJ:  cpu time    0.0080: real time    0.0079
    EDDIAG:  cpu time   10.8943: real time   10.8956
  RMM-DIIS:  cpu time   28.6376: real time   28.6327
    ORTHCH:  cpu time    2.8966: real time    2.8948
       DOS:  cpu time    0.0040: real time    0.0040
    CHARGE:  cpu time    2.3196: real time    2.3165
    MIXING:  cpu time    0.0020: real time    0.0024
    --------------------------------------------
      LOOP:  cpu time   44.8212: real time   44.8344

 eigenvalue-minimisations  : 25128
 total energy-change (2. order) :-0.6707784E+01  (-0.1772858E+01)
 number of electron     364.9999993 magnetization 
 augmentation part      112.2463760 magnetization 

 Broyden mixing:
  rms(total) = 0.32805E+01    rms(broyden)= 0.32804E+01
  rms(prec ) = 0.49805E+01
  weight for this iteration     100.00

 eigenvalues of (default mixing * dielectric matrix)
  average eigenvalue GAMMA=   0.8752
  2.1922  0.8461  0.2957  0.1668

 Free energy of the ion-electron system (eV)
  ---------------------------------------------------
  alpha Z        PSCENC =       935.82383185
  Ewald energy   TEWEN  =     92816.60391968
  -Hartree energ DENC   =   -120637.91072256
  -exchange      EXHF   =         0.00000000
  -V(xc)+E(xc)   XCENC  =       123.59745678
  PAW double counting   =     31749.06802769   -30828.87628961
  entropy T*S    EENTRO =        -1.33076804
  eigenvalues    EBANDS =      -800.32909274
  atomic energy  EATOM  =     26407.63612164
  Solvation  Ediel_sol  =         0.00000000
  ---------------------------------------------------
  free energy    TOTEN  =      -235.71751532 eV

  energy without entropy =     -234.38674728  energy(sigma->0) =     -235.05213130


--------------------------------------------------------------------------------------------------------




----------------------------------------- Iteration    1(   9)  ---------------------------------------


    POTLOK:  cpu time    0.1370: real time    0.1873
    SETDIJ:  cpu time    0.0080: real time    0.0080
    EDDIAG:  cpu time   10.8024: real time   10.8441
  RMM-DIIS:  cpu time   28.2717: real time   28.5688
    ORTHCH:  cpu time    2.9106: real time    2.9544
       DOS:  cpu time    0.0040: real time    0.0037
    CHARGE:  cpu time    2.2217: real time    2.3612
    MIXING:  cpu time    0.0030: real time    0.0026
    --------------------------------------------
      LOOP:  cpu time   44.3593: real time   45.0246

 eigenvalue-minimisations  : 25371
 total energy-change (2. order) : 0.4530307E+01  (-0.9864727E+00)
 number of electron     365.0000015 magnetization 
 augmentation part      112.0213366 magnetization 

 Broyden mixing:
  rms(total) = 0.27394E+01    rms(broyden)= 0.27392E+01
  rms(prec ) = 0.37257E+01
  weight for this iteration     100.00

 eigenvalues of (default mixing * dielectric matrix)
  average eigenvalue GAMMA=   0.7972
  2.3385  0.9939  0.2650  0.2650  0.1235

 Free energy of the ion-electron system (eV)
  ---------------------------------------------------
  alpha Z        PSCENC =       935.82383185
  Ewald energy   TEWEN  =     92816.60391968
  -Hartree energ DENC   =   -120660.70083862
  -exchange      EXHF   =         0.00000000
  -V(xc)+E(xc)   XCENC  =       123.89312168
  PAW double counting   =     32005.41982734   -31086.64013014
  entropy T*S    EENTRO =        -1.83866338
  eigenvalues    EBANDS =      -771.38439845
  atomic energy  EATOM  =     26407.63612164
  Solvation  Ediel_sol  =         0.00000000
  ---------------------------------------------------
  free energy    TOTEN  =      -231.18720840 eV

  energy without entropy =     -229.34854502  energy(sigma->0) =     -230.26787671


--------------------------------------------------------------------------------------------------------




----------------------------------------- Iteration    1(  10)  ---------------------------------------


    POTLOK:  cpu time    0.0580: real time    0.0578
    SETDIJ:  cpu time    0.0080: real time    0.0082
    EDDIAG:  cpu time   10.2824: real time   10.3631
  RMM-DIIS:  cpu time   28.4497: real time   28.5036
    ORTHCH:  cpu time    2.8886: real time    2.9180
       DOS:  cpu time    0.0040: real time    0.0038
    CHARGE:  cpu time    2.3216: real time    2.3199
    MIXING:  cpu time    0.0650: real time    0.0652
    --------------------------------------------
      LOOP:  cpu time   44.0783: real time   44.2585

 eigenvalue-minimisations  : 24493
 total energy-change (2. order) : 0.7998701E+01  (-0.3126283E+00)
 number of electron     365.0000002 magnetization 
 augmentation part      112.1614164 magnetization 

 Broyden mixing:
  rms(total) = 0.97625E+00    rms(broyden)= 0.97617E+00
  rms(prec ) = 0.11056E+01
  weight for this iteration     100.00

 eigenvalues of (default mixing * dielectric matrix)
  average eigenvalue GAMMA=   0.7263
  2.2024  0.9962  0.3762  0.3317  0.3317  0.1194

 Free energy of the ion-electron system (eV)
  ---------------------------------------------------
  alpha Z        PSCENC =       935.82383185
  Ewald energy   TEWEN  =     92816.60391968
  -Hartree energ DENC   =   -120669.74130227
  -exchange      EXHF   =         0.00000000
  -V(xc)+E(xc)   XCENC  =       123.98163047
  PAW double counting   =     32256.43480790   -31339.92986862
  entropy T*S    EENTRO =        -2.00174944
  eigenvalues    EBANDS =      -751.99589858
  atomic energy  EATOM  =     26407.63612164
  Solvation  Ediel_sol  =         0.00000000
  ---------------------------------------------------
  free energy    TOTEN  =      -223.18850737 eV

  energy without entropy =     -221.18675793  energy(sigma->0) =     -222.18763265


--------------------------------------------------------------------------------------------------------




----------------------------------------- Iteration    1(  11)  ---------------------------------------


    POTLOK:  cpu time    0.2740: real time    0.3143
    SETDIJ:  cpu time    0.0080: real time    0.0082
    EDDIAG:  cpu time   10.4594: real time   10.4609
  RMM-DIIS:  cpu time   27.6328: real time   27.6832
    ORTHCH:  cpu time    7.0369: real time    7.6302
       DOS:  cpu time    0.0040: real time    0.0039
    CHARGE:  cpu time    2.2907: real time    2.2891
    MIXING:  cpu time    0.0030: real time    0.0027
    --------------------------------------------
      LOOP:  cpu time   47.7107: real time   48.4628

 eigenvalue-minimisations  : 24920
 total energy-change (2. order) : 0.4335151E+00  (-0.1277029E+00)
 number of electron     365.0000005 magnetization 
 augmentation part      112.0923176 magnetization 

 Broyden mixing:
  rms(total) = 0.70422E+00    rms(broyden)= 0.70419E+00
  rms(prec ) = 0.82113E+00
  weight for this iteration     100.00

 eigenvalues of (default mixing * dielectric matrix)
  average eigenvalue GAMMA=   0.6862
  2.1179  0.9627  0.5297  0.5297  0.2722  0.2722  0.1189

 Free energy of the ion-electron system (eV)
  ---------------------------------------------------
  alpha Z        PSCENC =       935.82383185
  Ewald energy   TEWEN  =     92816.60391968
  -Hartree energ DENC   =   -120669.90978940
  -exchange      EXHF   =         0.00000000
  -V(xc)+E(xc)   XCENC  =       124.20028676
  PAW double counting   =     32143.71570150   -31225.64366906
  entropy T*S    EENTRO =        -2.07108192
  eigenvalues    EBANDS =      -753.11031332
  atomic energy  EATOM  =     26407.63612164
  Solvation  Ediel_sol  =         0.00000000
  ---------------------------------------------------
  free energy    TOTEN  =      -222.75499226 eV

  energy without entropy =     -220.68391034  energy(sigma->0) =     -221.71945130


--------------------------------------------------------------------------------------------------------




----------------------------------------- Iteration    1(  12)  ---------------------------------------


    POTLOK:  cpu time    0.0580: real time    0.0584
    SETDIJ:  cpu time    0.0080: real time    0.0082
    EDDIAG:  cpu time   10.4334: real time   10.4247
  RMM-DIIS:  cpu time   27.9468: real time   28.2740
    ORTHCH:  cpu time    2.8296: real time    2.8704
       DOS:  cpu time    0.0040: real time    0.0039
    CHARGE:  cpu time    2.3416: real time    2.3402
    MIXING:  cpu time    0.0030: real time    0.0029
    --------------------------------------------
      LOOP:  cpu time   43.6254: real time   44.0054

 eigenvalue-minimisations  : 25317
 total energy-change (2. order) : 0.2948060E+00  (-0.4862094E-01)
 number of electron     365.0000003 magnetization 
 augmentation part      112.0284681 magnetization 

 Broyden mixing:
  rms(total) = 0.43506E+00    rms(broyden)= 0.43503E+00
  rms(prec ) = 0.52415E+00
  weight for this iteration     100.00

 eigenvalues of (default mixing * dielectric matrix)
  average eigenvalue GAMMA=   0.6809
  2.1557  0.8889  0.7238  0.7238  0.2943  0.2943  0.1191  0.2475

 Free energy of the ion-electron system (eV)
  ---------------------------------------------------
  alpha Z        PSCENC =       935.82383185
  Ewald energy   TEWEN  =     92816.60391968
  -Hartree energ DENC   =   -120675.74559322
  -exchange      EXHF   =         0.00000000
  -V(xc)+E(xc)   XCENC  =       124.31735442
  PAW double counting   =     32080.83750390   -31161.94463983
  entropy T*S    EENTRO =        -2.07437221
  eigenvalues    EBANDS =      -747.91431246
  atomic energy  EATOM  =     26407.63612164
  Solvation  Ediel_sol  =         0.00000000
  ---------------------------------------------------
  free energy    TOTEN  =      -222.46018624 eV

  energy without entropy =     -220.38581402  energy(sigma->0) =     -221.42300013


--------------------------------------------------------------------------------------------------------




----------------------------------------- Iteration    1(  13)  ---------------------------------------


    POTLOK:  cpu time    0.4799: real time    0.7585
    SETDIJ:  cpu time    0.0080: real time    0.0081
    EDDIAG:  cpu time   10.2734: real time   10.3705
  RMM-DIIS:  cpu time   28.0947: real time   28.4233
    ORTHCH:  cpu time    2.7166: real time    2.8056
       DOS:  cpu time    0.0040: real time    0.0038
    CHARGE:  cpu time    2.2717: real time    2.3207
    MIXING:  cpu time    0.0030: real time    0.0031
    --------------------------------------------
      LOOP:  cpu time   43.8523: real time   44.8268

 eigenvalue-minimisations  : 25337
 total energy-change (2. order) : 0.1130906E+00  (-0.1881797E-01)
 number of electron     364.9999999 magnetization 
 augmentation part      111.9979802 magnetization 

 Broyden mixing:
  rms(total) = 0.20983E+00    rms(broyden)= 0.20981E+00
  rms(prec ) = 0.23368E+00
  weight for this iteration     100.00

 eigenvalues of (default mixing * dielectric matrix)
  average eigenvalue GAMMA=   0.7135
  2.1670  1.0433  1.0433  0.8369  0.3941  0.2874  0.2874  0.1190  0.2432

 Free energy of the ion-electron system (eV)
  ---------------------------------------------------
  alpha Z        PSCENC =       935.82383185
  Ewald energy   TEWEN  =     92816.60391968
  -Hartree energ DENC   =   -120685.56352694
  -exchange      EXHF   =         0.00000000
  -V(xc)+E(xc)   XCENC  =       124.31332975
  PAW double counting   =     32092.97030154   -31174.27752135
  entropy T*S    EENTRO =        -2.06757982
  eigenvalues    EBANDS =      -737.78597194
  atomic energy  EATOM  =     26407.63612164
  Solvation  Ediel_sol  =         0.00000000
  ---------------------------------------------------
  free energy    TOTEN  =      -222.34709560 eV

  energy without entropy =     -220.27951578  energy(sigma->0) =     -221.31330569


--------------------------------------------------------------------------------------------------------




----------------------------------------- Iteration    1(  14)  ---------------------------------------


    POTLOK:  cpu time    0.0560: real time    0.0576
    SETDIJ:  cpu time    0.0080: real time    0.0081
    EDDIAG:  cpu time   10.3914: real time   10.3888
  RMM-DIIS:  cpu time   28.4787: real time   28.6311
    ORTHCH:  cpu time    2.9096: real time    2.9303
       DOS:  cpu time    0.0040: real time    0.0038
    CHARGE:  cpu time    2.3086: real time    2.3168
    MIXING:  cpu time    0.0030: real time    0.0032
    --------------------------------------------
      LOOP:  cpu time   44.1623: real time   44.3623

 eigenvalue-minimisations  : 25484
 total energy-change (2. order) : 0.9766266E-02  (-0.8223675E-02)
 number of electron     364.9999997 magnetization 
 augmentation part      111.9571826 magnetization 

 Broyden mixing:
  rms(total) = 0.16651E+00    rms(broyden)= 0.16650E+00
  rms(prec ) = 0.20501E+00
  weight for this iteration     100.00

 eigenvalues of (default mixing * dielectric matrix)
  average eigenvalue GAMMA=   0.7484
  1.7689  1.7689  1.3218  0.6741  0.6741  0.1191  0.2953  0.2953  0.3305  0.2361

 Free energy of the ion-electron system (eV)
  ---------------------------------------------------
  alpha Z        PSCENC =       935.82383185
  Ewald energy   TEWEN  =     92816.60391968
  -Hartree energ DENC   =   -120696.34803235
  -exchange      EXHF   =         0.00000000
  -V(xc)+E(xc)   XCENC  =       124.35514616
  PAW double counting   =     32089.22012040   -31170.50452931
  entropy T*S    EENTRO =        -2.05905841
  eigenvalues    EBANDS =      -727.06484900
  atomic energy  EATOM  =     26407.63612164
  Solvation  Ediel_sol  =         0.00000000
  ---------------------------------------------------
  free energy    TOTEN  =      -222.33732934 eV

  energy without entropy =     -220.27827093  energy(sigma->0) =     -221.30780013


--------------------------------------------------------------------------------------------------------




----------------------------------------- Iteration    1(  15)  ---------------------------------------


    POTLOK:  cpu time    0.0580: real time    0.0584
    SETDIJ:  cpu time    0.0080: real time    0.0081
    EDDIAG:  cpu time   10.5754: real time   10.5686
  RMM-DIIS:  cpu time   27.9048: real time   28.2602
    ORTHCH:  cpu time    2.8266: real time    2.8461
       DOS:  cpu time    0.0040: real time    0.0037
    CHARGE:  cpu time    2.3526: real time    2.3496
    MIXING:  cpu time    0.0030: real time    0.0034
    --------------------------------------------
      LOOP:  cpu time   43.7334: real time   44.1435

 eigenvalue-minimisations  : 25091
 total energy-change (2. order) : 0.2046498E-01  (-0.1807278E-02)
 number of electron     364.9999998 magnetization 
 augmentation part      111.9201873 magnetization 

 Broyden mixing:
  rms(total) = 0.93974E-01    rms(broyden)= 0.93971E-01
  rms(prec ) = 0.11154E+00
  weight for this iteration     100.00

 eigenvalues of (default mixing * dielectric matrix)
  average eigenvalue GAMMA=   0.8032
  2.2336  2.2336  1.1909  0.7193  0.7193  0.4719  0.1190  0.2927  0.2927  0.3241
  0.2379

 Free energy of the ion-electron system (eV)
  ---------------------------------------------------
  alpha Z        PSCENC =       935.82383185
  Ewald energy   TEWEN  =     92816.60391968
  -Hartree energ DENC   =   -120702.72138059
  -exchange      EXHF   =         0.00000000
  -V(xc)+E(xc)   XCENC  =       124.45505289
  PAW double counting   =     32047.97868689   -31128.70035656
  entropy T*S    EENTRO =        -2.06766013
  eigenvalues    EBANDS =      -721.32508002
  atomic energy  EATOM  =     26407.63612164
  Solvation  Ediel_sol  =         0.00000000
  ---------------------------------------------------
  free energy    TOTEN  =      -222.31686436 eV

  energy without entropy =     -220.24920423  energy(sigma->0) =     -221.28303429


--------------------------------------------------------------------------------------------------------




----------------------------------------- Iteration    1(  16)  ---------------------------------------


    POTLOK:  cpu time    0.0570: real time    0.0583
    SETDIJ:  cpu time    0.0080: real time    0.0081
    EDDIAG:  cpu time   10.5114: real time   10.5215
  RMM-DIIS:  cpu time   28.1787: real time   28.1883
    ORTHCH:  cpu time    2.8996: real time    2.8983
       DOS:  cpu time    0.0040: real time    0.0037
    CHARGE:  cpu time    2.3116: real time    2.3101
    MIXING:  cpu time    0.0040: real time    0.0036
    --------------------------------------------
      LOOP:  cpu time   43.9763: real time   44.0147

 eigenvalue-minimisations  : 24799
 total energy-change (2. order) : 0.5182287E-02  (-0.1236488E-02)
 number of electron     364.9999999 magnetization 
 augmentation part      111.9100982 magnetization 

 Broyden mixing:
  rms(total) = 0.68348E-01    rms(broyden)= 0.68343E-01
  rms(prec ) = 0.86172E-01
  weight for this iteration     100.00

 eigenvalues of (default mixing * dielectric matrix)
  average eigenvalue GAMMA=   0.7989
  2.2247  2.2247  1.3232  0.7447  0.7447  0.6829  0.1190  0.3813  0.2935  0.2935
  0.3171  0.2377

 Free energy of the ion-electron system (eV)
  ---------------------------------------------------
  alpha Z        PSCENC =       935.82383185
  Ewald energy   TEWEN  =     92816.60391968
  -Hartree energ DENC   =   -120707.20205472
  -exchange      EXHF   =         0.00000000
  -V(xc)+E(xc)   XCENC  =       124.52622458
  PAW double counting   =     32029.75388299   -31110.20970915
  entropy T*S    EENTRO =        -2.07532086
  eigenvalues    EBANDS =      -717.16857808
  atomic energy  EATOM  =     26407.63612164
  Solvation  Ediel_sol  =         0.00000000
  ---------------------------------------------------
  free energy    TOTEN  =      -222.31168207 eV

  energy without entropy =     -220.23636121  energy(sigma->0) =     -221.27402164


--------------------------------------------------------------------------------------------------------




----------------------------------------- Iteration    1(  17)  ---------------------------------------


    POTLOK:  cpu time    0.3020: real time    0.5047
[...]
    141      -0.1432      2.00000
    142      -0.1046      2.00000
    143      -0.0858      2.00000
    144      -0.0356      2.00000
    145      -0.0316      2.00000
    146       0.0011      1.99999
    147       0.0489      1.99999
    148       0.0846      1.99999
    149       0.1218      1.99998
    150       0.1303      1.99998
    151       0.1710      1.99997
    152       0.1964      1.99996
    153       0.2286      1.99995
    154       0.2319      1.99994
    155       0.3355      1.99984
    156       0.3856      1.99974
    157       0.4728      1.99939
    158       0.5226      1.99899
    159       0.5701      1.99838
    160       0.6107      1.99757
    161       0.6457      1.99655
    162       0.6661      1.99577
    163       0.7045      1.99380
    164       0.7407      1.99111
    165       0.7682      1.98831
    166       0.8110      1.98212
    167       0.8782      1.96527
    168       0.9317      1.94142
    169       0.9388      1.93727
    170       0.9797      1.90705
    171       1.0201      1.86388
    172       1.0418      1.83371
    173       1.0707      1.78387
    174       1.1050      1.70835
    175       1.1622      1.53562
    176       1.1850      1.44967
    177       1.2121      1.33502
    178       1.2163      1.31652
    179       1.2395      1.20834
    180       1.2624      1.09693
    181       1.2796      1.01107
    182       1.2861      0.97851
    183       1.3878      0.51450
    184       1.4293      0.37244
    185       1.4435      0.33114
    186       1.5079      0.18881
    187       1.5126      0.18089
    188       1.5448      0.13454
    189       1.5544      0.12288
    190       1.5839      0.09301
    191       1.6172      0.06751
    192       1.6401      0.05406
    193       2.1214      0.00045
    194       2.2886      0.00008
    195       2.6097      0.00000
    196       2.7249      0.00000
    197       2.7577      0.00000
    198       2.8156      0.00000
    199       2.8764      0.00000
    200       3.0173      0.00000
    201       3.1666      0.00000
    202       3.3654      0.00000
    203       3.4286      0.00000
    204       3.6049      0.00000
    205       3.7015      0.00000
    206       3.8503      0.00000
    207       4.0456      0.00000
    208       4.1088      0.00000
    209       4.2011      0.00000
    210       4.3241      0.00000
    211       4.3920      0.00000
    212       4.4554      0.00000
    213       4.6207      0.00000
    214       4.7745      0.00000
    215       4.9281      0.00000
    216       5.0013      0.00000
    217       5.3403      0.00000
    218       5.8171      0.00000
    219       5.9395      0.00000
    220       6.0559      0.00000


--------------------------------------------------------------------------------------------------------


 soft charge-density along one line, spin component           1
         0         1         2         3         4         5         6         7         8         9
 total charge-density along one line
 
 pseudopotential strength for first ion, spin component:           1
 -6.093   0.000  -0.000  -0.011   0.000  -6.207   0.000  -0.000
  0.000  -5.991   0.000   0.000  -0.012   0.000  -6.108   0.000
 -0.000   0.000  -5.987   0.000  -0.000  -0.000   0.000  -6.104
 -0.011   0.000   0.000  -5.991   0.000  -0.011   0.000   0.000
  0.000  -0.012  -0.000   0.000  -6.093   0.000  -0.011  -0.000
 -6.207   0.000  -0.000  -0.011   0.000  -6.305   0.000  -0.000
  0.000  -6.108   0.000   0.000  -0.011   0.000  -6.208   0.000
 -0.000   0.000  -6.104   0.000  -0.000  -0.000   0.000  -6.205
 -0.011   0.000   0.000  -6.108   0.000  -0.011   0.000   0.000
  0.000  -0.011  -0.000   0.000  -6.207   0.000  -0.011  -0.000
 -0.000  -0.000  -0.031  -0.000  -0.000  -0.000  -0.000  -0.031
 -0.000  -0.000  -0.046  -0.000  -0.000  -0.000  -0.000  -0.046
  0.000  -0.004  -0.000   0.000   0.000   0.000  -0.004  -0.000
  0.000   0.000  -0.009   0.000   0.000   0.000   0.000  -0.008
  0.001   0.000  -0.000  -0.004   0.000   0.001   0.000  -0.000
  0.000  -0.003  -0.000   0.000   0.000   0.000  -0.003  -0.000
  0.000   0.000  -0.009   0.000   0.000   0.000   0.000  -0.009
  0.001   0.000  -0.000  -0.003   0.000   0.001   0.000  -0.000
 total augmentation occupancy for first ion, spin component:           1
  3.166   0.003  -0.001  -0.211   0.007  -2.031  -0.002   0.000   0.037  -0.005  -0.001  -0.000  -0.001  -0.000  -0.051   0.000
  0.003   3.890  -0.000   0.001  -0.215  -0.002  -2.078   0.000  -0.001   0.046   0.003  -0.001  -0.255  -0.000  -0.001   0.012
 -0.001  -0.000   4.124   0.001  -0.001   0.001   0.000  -2.538  -0.001   0.000   0.754  -0.118  -0.003  -0.304  -0.005  -0.000
 -0.211   0.001   0.001   3.891   0.003   0.044  -0.001  -0.001  -2.078  -0.002   0.006  -0.001  -0.001  -0.001  -0.256  -0.000
  0.007  -0.215  -0.001   0.003   3.158  -0.005   0.039   0.000  -0.002  -2.025  -0.001  -0.000  -0.049  -0.000  -0.001   0.003
 -2.031  -0.002   0.001   0.044  -0.005   2.539   0.001  -0.000   0.081   0.003   0.001  -0.000   0.000   0.000   0.050   0.000
 -0.002  -2.078   0.000  -0.001   0.039   0.001   2.092  -0.001  -0.000   0.080  -0.003   0.000   0.245  -0.000   0.001  -0.017
  0.000   0.000  -2.538  -0.001   0.000  -0.000  -0.001   2.714  -0.000  -0.000  -0.657   0.084   0.002   0.363   0.003  -0.000
  0.037  -0.001  -0.001  -2.078  -0.002   0.081  -0.000  -0.000   2.091   0.001  -0.005   0.001   0.001   0.000   0.245   0.000
 -0.005   0.046   0.000  -0.002  -2.025   0.003   0.080  -0.000   0.001   2.535   0.000  -0.000   0.050   0.000   0.000  -0.003
 -0.001   0.003   0.754   0.006  -0.001   0.001  -0.003  -0.657  -0.005   0.000   2.233  -0.444  -0.001   0.187  -0.001   0.000
 -0.000  -0.001  -0.118  -0.001  -0.000  -0.000   0.000   0.084   0.001  -0.000  -0.444   0.109  -0.000  -0.065  -0.000  -0.000
 -0.001  -0.255  -0.003  -0.001  -0.049   0.000   0.245   0.002   0.001   0.050  -0.001  -0.000   0.260   0.000  -0.000  -0.014
 -0.000  -0.000  -0.304  -0.001  -0.000   0.000  -0.000   0.363   0.000   0.000   0.187  -0.065   0.000   0.147   0.001   0.000
 -0.051  -0.001  -0.005  -0.256  -0.001   0.050   0.001   0.003   0.245   0.000  -0.001  -0.000  -0.000   0.001   0.260   0.000
  0.000   0.012  -0.000  -0.000   0.003   0.000  -0.017  -0.000   0.000  -0.003   0.000  -0.000  -0.014   0.000   0.000   0.001
 -0.000   0.000   0.003   0.000  -0.000   0.000   0.000  -0.019   0.000   0.000  -0.018   0.005  -0.000  -0.009  -0.000  -0.000
  0.003  -0.000  -0.000   0.012   0.000  -0.003   0.000  -0.000  -0.016   0.000   0.000  -0.000   0.000  -0.000  -0.014  -0.000


------------------------ aborting loop because EDIFF is reached ----------------------------------------


    CHARGE:  cpu time    2.2467: real time    2.3104
    FORLOC:  cpu time    0.0160: real time    0.0165
    FORNL :  cpu time   11.0583: real time   11.0961
    STRESS:  cpu time   32.9040: real time   32.9629
    FORCOR:  cpu time    0.0700: real time    0.0705
    FORHAR:  cpu time    0.0300: real time    0.0292
    MIXING:  cpu time    0.0080: real time    0.0083
    OFIELD:  cpu time    0.0000: real time    0.0000

  FORCE on cell =-STRESS in cart. coord.  units (eV):
  Direction    XX          YY          ZZ          XY          YZ          ZX
  --------------------------------------------------------------------------------------
  Alpha Z   935.82383   935.82383   935.82383
  Ewald  112696.17099112691.39141************     1.48096     1.98171     1.58021
  Hartree119051.69574119050.26583************     0.39477     0.49204     0.40899
  E(xc)   -1609.52090 -1609.54034 -1619.46036     0.00727     0.00803     0.00629
  Local  ************************243169.97980    -1.63861    -2.05385    -1.66125
  n-local   155.85083   155.57146   139.32237     0.08085     0.17411     0.12777
  augment  1878.60238  1878.88773  1930.07061    -0.09770    -0.18027    -0.13787
  Kinetic  5254.58121  5255.14018  5391.41199    -0.18823    -0.30500    -0.23788
  Fock        0.00000     0.00000     0.00000     0.00000     0.00000     0.00000
  -------------------------------------------------------------------------------------
  Total     -34.81045   -34.93311    -0.25490     0.03930     0.11677     0.08625
  in kB     -41.50719   -41.65345    -0.30394     0.04686     0.13923     0.10285
  external pressure =      -27.82 kB  Pullay stress =        0.00 kB


 VOLUME and BASIS-vectors are now :
 -----------------------------------------------------------------------------
  energy-cutoff  :      400.00
  volume of cell :     1343.68
      direct lattice vectors                 reciprocal lattice vectors
     8.421641764  0.000000000  0.000000000     0.118741693 -0.068555548  0.000000000
     4.210820882  7.293355709  0.000000000     0.000000000  0.137111097  0.000000000
     0.000000000  0.000000000 21.876241706     0.000000000  0.000000000  0.045711691

  length of vectors
     8.421641764  8.421641764 21.876241706     0.137111097  0.137111097  0.045711691


 FORCES acting on ions
    electron-ion (+dipol)            ewald-force                    non-local-force                 convergence-correction
 -----------------------------------------------------------------------------------------------
   -.296E+00 -.177E+00 0.232E+04   0.253E+00 0.154E+00 -.232E+04   0.263E-01 0.145E-01 -.118E+01   0.434E-04 -.840E-04 -.161E-02
   0.304E+00 -.175E+00 0.232E+04   -.259E+00 0.153E+00 -.232E+04   -.274E-01 0.140E-01 -.118E+01   -.130E-03 -.932E-04 -.148E-02
   -.395E-02 -.418E+00 0.232E+04   0.552E-02 0.418E+00 -.232E+04   -.674E-03 -.976E-02 -.121E+01   0.871E-04 -.112E-04 -.156E-02
   0.544E-02 0.350E+00 0.232E+04   -.319E-02 -.298E+00 -.232E+04   -.121E-02 -.317E-01 -.118E+01   -.513E-04 -.996E-04 -.145E-02
   -.111E+00 -.630E-01 0.232E+04   0.122E+00 0.705E-01 -.232E+04   -.833E-02 -.541E-02 -.122E+01   0.743E-04 0.646E-04 -.145E-02
   0.111E+00 -.603E-01 0.232E+04   -.119E+00 0.687E-01 -.232E+04   0.709E-02 -.587E-02 -.122E+01   -.229E-04 -.736E-05 -.150E-02
   -.359E+00 0.212E+00 0.232E+04   0.359E+00 -.208E+00 -.232E+04   -.825E-02 0.308E-02 -.121E+01   0.129E-03 0.114E-03 -.149E-02
   0.156E-02 0.135E+00 0.232E+04   0.458E-03 -.145E+00 -.232E+04   -.986E-03 0.854E-02 -.122E+01   -.363E-04 0.825E-04 -.145E-02
   0.363E+00 0.217E+00 0.232E+04   -.359E+00 -.214E+00 -.232E+04   0.647E-02 0.316E-02 -.121E+01   -.923E-04 0.347E-04 -.141E-02
   0.391E-01 -.166E-01 0.798E+03   -.382E-01 0.188E-01 -.798E+03   -.305E-02 -.460E-02 -.122E+00   0.755E-04 -.390E-04 -.301E-02
   -.142E+00 -.270E+01 0.802E+03   0.243E-01 0.270E+01 -.801E+03   0.800E-01 0.298E-01 -.296E+00   -.120E-03 -.180E-04 -.303E-02
   0.154E+00 -.268E+01 0.802E+03   -.322E-01 0.267E+01 -.801E+03   -.876E-01 0.282E-01 -.297E+00   0.451E-04 0.592E-04 -.318E-02
   -.238E+01 0.130E+01 0.802E+03   0.231E+01 -.139E+01 -.801E+03   0.680E-01 0.467E-01 -.295E+00   -.460E-05 0.106E-04 -.298E-02
   -.305E-01 0.224E-01 0.800E+03   0.333E-01 -.194E-01 -.799E+03   -.392E-02 -.529E-02 -.263E+00   0.241E-04 0.158E-03 -.312E-02
   0.253E+01 0.133E+01 0.802E+03   -.247E+01 -.142E+01 -.801E+03   -.801E-01 0.462E-01 -.296E+00   -.196E-04 0.111E-03 -.298E-02
   -.221E+01 0.152E+01 0.802E+03   0.227E+01 -.141E+01 -.801E+03   -.170E-01 -.961E-01 -.299E+00   0.143E-03 -.944E-04 -.316E-02
   0.234E+01 0.158E+01 0.802E+03   -.239E+01 -.148E+01 -.801E+03   0.422E-02 -.966E-01 -.298E+00   -.381E-04 -.620E-04 -.302E-02
   -.146E-01 0.400E-01 0.806E+03   0.180E-01 -.353E-01 -.805E+03   -.504E-02 -.766E-02 -.412E+00   -.105E-03 -.125E-03 -.303E-02
   -.109E+01 0.763E+00 -.730E+03   0.773E+00 -.581E+00 0.730E+03   0.313E+00 -.180E+00 0.616E-02   0.681E-04 0.303E-04 -.130E-02
   0.133E+01 0.675E+00 -.730E+03   -.102E+01 -.494E+00 0.730E+03   -.315E+00 -.182E+00 0.377E-02   -.100E-04 -.189E-04 -.142E-02
   -.119E+00 -.356E+01 -.740E+03   0.119E+00 0.364E+01 0.740E+03   -.415E-04 -.765E-01 0.700E+00   -.580E-04 0.597E-04 -.120E-02
   -.173E+00 0.338E+01 -.717E+03   0.171E+00 -.347E+01 0.716E+03   0.195E-02 0.815E-01 0.472E+00   -.220E-04 0.147E-05 -.145E-02
   -.320E+01 0.177E+01 -.740E+03   0.326E+01 -.181E+01 0.740E+03   -.623E-01 0.388E-01 0.695E+00   0.240E-04 -.407E-05 -.131E-02
   0.332E+01 0.199E+01 -.741E+03   -.338E+01 -.202E+01 0.740E+03   0.626E-01 0.338E-01 0.686E+00   -.225E-05 0.764E-04 -.140E-02
   -.275E+01 -.173E+01 -.717E+03   0.282E+01 0.177E+01 0.716E+03   -.758E-01 -.451E-01 0.467E+00   0.130E-04 -.687E-04 -.115E-02
   0.611E-01 -.136E+01 -.729E+03   -.623E-01 0.993E+00 0.729E+03   0.276E-02 0.364E+00 0.859E-02   0.726E-04 -.247E-04 -.133E-02
   0.272E+01 -.177E+01 -.716E+03   -.280E+01 0.182E+01 0.716E+03   0.724E-01 -.431E-01 0.473E+00   -.874E-04 -.522E-04 -.136E-02
   -.188E+01 -.117E+01 -.225E+04   0.188E+01 0.116E+01 0.225E+04   0.557E-03 0.621E-02 0.109E+01   -.141E-03 -.991E-04 0.217E-05
   0.141E+01 -.146E+01 -.225E+04   -.143E+01 0.145E+01 0.224E+04   0.241E-01 0.191E-01 0.110E+01   0.357E-04 -.682E-04 -.999E-04
   0.150E+00 0.104E+02 -.224E+04   -.155E+00 -.109E+02 0.224E+04   0.631E-02 0.511E+00 0.120E+01   0.105E-03 0.502E-04 0.373E-04
   -.404E+00 0.174E+01 -.225E+04   0.391E+00 -.177E+01 0.224E+04   0.164E-01 0.226E-01 0.110E+01   -.258E-04 -.165E-04 -.107E-03
   0.821E+02 0.473E+02 -.221E+04   -.813E+02 -.469E+02 0.222E+04   -.803E+00 -.454E+00 -.225E+01   0.135E-03 0.211E-05 0.866E-04
   -.818E+02 0.468E+02 -.221E+04   0.810E+02 -.464E+02 0.222E+04   0.791E+00 -.441E+00 -.224E+01   -.108E-03 -.116E-03 0.103E-03
   0.906E+01 -.493E+01 -.224E+04   -.950E+01 0.518E+01 0.224E+04   0.440E+00 -.253E+00 0.119E+01   0.110E-03 0.148E-03 -.146E-04
   -.270E+00 -.944E+02 -.221E+04   0.261E+00 0.935E+02 0.222E+04   0.951E-02 0.909E+00 -.223E+01   -.888E-04 0.155E-04 0.447E-04
   -.879E+01 -.502E+01 -.224E+04   0.922E+01 0.527E+01 0.224E+04   -.438E+00 -.251E+00 0.119E+01   -.228E-04 0.780E-04 -.849E-04
   -.430E-01 -.657E-02 -.109E+04   0.453E-01 0.387E-02 0.110E+04   0.732E-02 0.117E-01 -.170E+01   -.442E-06 -.225E-04 0.254E-03
   0.637E-01 0.779E-01 -.294E+03   -.687E-01 -.839E-01 0.299E+03   0.753E-02 0.978E-02 -.566E+01   -.362E-06 -.313E-05 0.886E-04
 -----------------------------------------------------------------------------------------------
   -.249E-01 -.366E-01 0.171E+02   0.332E-13 -.135E-12 -.784E-11   0.102E-01 0.136E-01 -.171E+02   -.292E-05 -.312E-04 -.525E-01
 
 
 POSITION                                       TOTAL-FORCE (eV/Angst)
 -----------------------------------------------------------------------------------
      0.00000      0.00000      7.50000        -0.016146     -0.008250     -0.047434
      2.80721      0.00000      7.50000         0.017792     -0.007924     -0.047175
      5.61443      0.00000      7.50000         0.001368     -0.009094     -0.065993
      1.40361      2.43112      7.50000         0.001368      0.020459     -0.046838
      4.21082      2.43112      7.50000         0.003174      0.002802     -0.046788
      7.01803      2.43112      7.50000        -0.000892      0.003167     -0.046546
      2.80721      4.86224      7.50000        -0.007839      0.007685     -0.065632
      5.61443      4.86224      7.50000         0.001384     -0.001013     -0.046548
      8.42164      4.86224      7.50000         0.010292      0.007228     -0.065430
      1.40361      0.81037      9.79208        -0.001714     -0.001851     -0.205370
      4.21082      0.81037      9.79208        -0.037057      0.026509      0.077931
      7.01803      0.81037      9.79208         0.034686      0.025777      0.080183
      2.80721      3.24149      9.79208         0.004667     -0.048087      0.078615
      5.61443      3.24149      9.79208        -0.000660     -0.001505      0.226911
      8.42164      3.24149      9.79208        -0.011001     -0.047876      0.077627
      4.21082      5.67261      9.79208         0.040081      0.014123      0.077754
      7.01803      5.67261      9.79208        -0.045107      0.012877      0.076152
      9.82525      5.67261      9.79208        -0.001412     -0.002528      0.020353
      8.40830      1.62429     12.07512        -0.000061      0.002773      0.000867
      2.81715      1.62411     12.07514         0.000433     -0.000247      0.003913
      5.61270      1.62641     12.08445        -0.000139     -0.002943      0.004604
      9.82247      4.04593     12.05423         0.000502     -0.006592      0.003015
      4.21556      4.04479     12.08448        -0.000928      0.000268      0.001574
      7.00883      4.04531     12.08527         0.001681     -0.001433     -0.002542
     11.22879      6.48119     12.05450         0.000722      0.000026     -0.002477
      5.61187      6.46683     12.07460         0.001931     -0.000509      0.000171
      8.41700      6.48127     12.05404        -0.003102      0.002077      0.003384
     12.62657      7.28508     14.36068         0.001854      0.000927     -0.010438
      7.01078      7.28424     14.35959         0.001936      0.005526     -0.006834
      9.81941      7.25633     14.35577         0.001858      0.004707     -0.001186
      9.81917      2.42196     14.35987         0.003582     -0.000976     -0.009723
      4.16016      2.39803     14.49594        -0.007413     -0.002428     -0.006701
      7.05832      2.39799     14.49796        -0.008263      0.006131     -0.002851
     11.19642      4.87071     14.35508         0.002031     -0.003003     -0.000727
      5.60851      4.90531     14.49822         0.001356     -0.009484     -0.002578
      8.44434      4.87118     14.35530        -0.003844     -0.001230     -0.003954
      5.60767      3.23119     15.58013         0.010009      0.009547     -0.012982
      5.60634      3.22950     16.68099         0.002873      0.004364      0.013694
 -----------------------------------------------------------------------------------
    total drift:                               -0.014680     -0.022994     -0.060824


--------------------------------------------------------------------------------------------------------



  FREE ENERGIE OF THE ION-ELECTRON SYSTEM (eV)
  ---------------------------------------------------
  free  energy   TOTEN  =      -222.30903730 eV

  energy  without entropy=     -220.23564405  energy(sigma->0) =     -221.27234068
 


--------------------------------------------------------------------------------------------------------


    POTLOK:  cpu time    0.0670: real time    0.0671


--------------------------------------------------------------------------------------------------------


 stress matrix after NEB project (eV)
    -34.81045      0.03930      0.08625
      0.03930    -34.93311      0.11677
      0.08625      0.11677     -0.25490
  FORCES: max atom, RMS     0.018970    0.006125
  FORCE total and by dimension    0.037756    0.013694
  Stress total and by dimension   49.317340   34.933113
     LOOP+:  cpu time 1713.3975: real time 1727.8835
    4ORBIT:  cpu time    0.0000: real time    0.0000

 total amount of memory used by VASP on root node   286431. kBytes
========================================================================

   base      :      30000. kBytes
   nonlr-proj:       4620. kBytes
   fftplans  :       4497. kBytes
   grid      :       7849. kBytes
   one-center:        155. kBytes
   wavefun   :     239310. kBytes
 
  
  
 General timing and accounting informations for this job:
 ========================================================
  
                  Total CPU time used (sec):     1740.598
                            User time (sec):     1691.150
                          System time (sec):       49.448
                         Elapsed time (sec):     1755.437
  
                   Maximum memory used (kb):      328800.
                   Average memory used (kb):           0.
  
                          Minor page faults:     23246357
                          Major page faults:           11
                 Voluntary context switches:         3183
