   37   37    1    1
  0.3631576E+02  0.8421642E-09  0.8421642E-09  0.2187624E-08  0.5000000E-15
  1.000000000000000E-004
  CAR 
 unknown system                          
    364     54    220
 
  0.8333333E-01  0.8333333E-01  0.0000000E+00  0.1851852E-01
    1      -11.066620   1.000000
    2       -8.017161   1.000000
    3       -6.674774   1.000000
    4       -5.944931   1.000000
    5       -5.896021   1.000000
    6       -5.700171   1.000000
    7       -5.593583   1.000000
    8       -5.573322   1.000000
    9       -5.566478   1.000000
   10       -5.510791   1.000000
   11       -5.446185   1.000000
   12       -5.376585   1.000000
   13       -5.366802   1.000000
   14       -5.031474   1.000000
   15       -5.001717   1.000000
   16       -4.996958   1.000000
   17       -4.944046   1.000000
   18       -4.904375   1.000000
   19       -4.892465   1.000000
   20       -4.551762   1.000000
   21       -4.532871   1.000000
   22       -4.496484   1.000000
   23       -4.487915   1.000000
   24       -4.404480   1.000000
   25       -4.358987   1.000000
   26       -4.312550   1.000000
   27       -4.267881   1.000000
   28       -4.264139   1.000000
   29       -4.197145   1.000000
   30       -4.190435   1.000000
   31       -4.170966   1.000000
   32       -4.131178   1.000000
   33       -4.098229   1.000000
   34       -4.075006   1.000000
   35       -4.074737   1.000000
   36       -4.055226   1.000000
   37       -4.031037   1.000000
   38       -3.993481   1.000000
   39       -3.959484   1.000000
   40       -3.860435   1.000000
   41       -3.844547   1.000000
   42       -3.592774   1.000000
   43       -3.553593   1.000000
   44       -3.545463   1.000000
   45       -3.478883   1.000000
   46       -3.434953   1.000000
   47       -3.410330   1.000000
   48       -3.398005   1.000000
   49       -3.390847   1.000000
   50       -3.303774   1.000000
   51       -3.275812   1.000000
   52       -3.175997   1.000000
   53       -3.149119   1.000000
   54       -3.126818   1.000000
   55       -3.125824   1.000000
   56       -3.053429   1.000000
   57       -3.052224   1.000000
   58       -2.871327   1.000000
   59       -2.658170   1.000000
   60       -2.648898   1.000000
   61       -2.558821   1.000000
   62       -2.558099   1.000000
   63       -2.549174   1.000000
   64       -2.533556   1.000000
   65       -2.479235   1.000000
   66       -2.473100   1.000000
   67       -2.441167   1.000000
   68       -2.426731   1.000000
   69       -2.402865   1.000000
   70       -2.381692   1.000000
   71       -2.335856   1.000000
   72       -2.333170   1.000000
   73       -2.299198   1.000000
   74       -2.292974   1.000000
   75       -2.262373   1.000000
   76       -2.227299   1.000000
   77       -2.202399   1.000000
   78       -2.166342   1.000000
   79       -2.164082   1.000000
   80       -2.140171   1.000000
   81       -2.126404   1.000000
   82       -2.089155   1.000000
   83       -2.069405   1.000000
   84       -2.048540   1.000000
   85       -2.031076   1.000000
   86       -1.944963   1.000000
   87       -1.932481   1.000000
   88       -1.901446   1.000000
   89       -1.885668   1.000000
   90       -1.881454   1.000000
   91       -1.853641   1.000000
   92       -1.828521   1.000000
   93       -1.812972   1.000000
   94       -1.780713   1.000000
   95       -1.763693   1.000000
   96       -1.760844   1.000000
   97       -1.725524   1.000000
   98       -1.683504   1.000000
   99       -1.681890   1.000000
  100       -1.655982   1.000000
  101       -1.581572   1.000000
  102       -1.561086   1.000000
  103       -1.532315   1.000000
  104       -1.520255   1.000000
  105       -1.513249   1.000000
  106       -1.505626   1.000000
  107       -1.502466   1.000000
  108       -1.441578   1.000000
  109       -1.408211   1.000000
  110       -1.351733   1.000000
  111       -1.182321   1.000000
  112       -1.180641   1.000000
  113       -1.136128   1.000000
  114       -1.037635   1.000000
  115       -1.033817   1.000000
  116       -0.961852   1.000000
  117       -0.961797   1.000000
  118       -0.928664   1.000000
  119       -0.888102   1.000000
  120       -0.882351   1.000000
  121       -0.857366   1.000000
  122       -0.804440   1.000000
  123       -0.771173   1.000000
  124       -0.770103   1.000000
  125       -0.651611   1.000000
  126       -0.612891   1.000000
  127       -0.584038   1.000000
  128       -0.576149   1.000000
  129       -0.429281   1.000000
  130       -0.419279   1.000000
  131       -0.360117   1.000000
  132       -0.353121   1.000000
  133       -0.330488   1.000000
  134       -0.326803   1.000000
  135       -0.306900   1.000000
  136       -0.305362   1.000000
  137       -0.289431   1.000000
  138       -0.220648   0.999999
  139       -0.190297   0.999999
  140       -0.175429   0.999999
  141       -0.117834   0.999997
  142       -0.072862   0.999996
  143       -0.048945   0.999995
  144       -0.035053   0.999994
  145       -0.003073   0.999992
  146        0.005357   0.999991
  147        0.025051   0.999990
  148        0.069513   0.999984
  149        0.134725   0.999969
  150        0.176320   0.999953
  151        0.190573   0.999945
  152        0.210483   0.999933
  153        0.239642   0.999911
  154        0.286948   0.999857
  155        0.335321   0.999768
  156        0.341429   0.999753
  157        0.345551   0.999742
  158        0.368187   0.999677
  159        0.387873   0.999607
  160        0.419287   0.999462
  161        0.470251   0.999104
  162        0.481675   0.998996
  163        0.490517   0.998903
  164        0.539757   0.998207
  165        0.558509   0.997838
  166        0.582245   0.997261
  167        0.587816   0.997104
  168        0.603912   0.996600
  169        0.610760   0.996360
  170        0.635695   0.995334
  171        0.645718   0.994844
  172        0.648704   0.994689
  173        0.695547   0.991543
  174        0.723731   0.988820
  175        0.736634   0.987300
  176        0.743630   0.986392
  177        0.786288   0.979302
  178        0.807873   0.974443
  179        0.835071   0.966721
  180        0.862028   0.956868
  181        0.870109   0.953408
  182        0.885976   0.945830
  183        0.916853   0.927652
  184        0.933303   0.915804
  185        0.952890   0.899420
  186        0.961003   0.891839
  187        0.967231   0.885683
  188        0.989576   0.861038
  189        0.990064   0.860453
  190        1.090275   0.693588
  191        1.180733   0.478106
  192        1.189162   0.457125
  193        1.217365   0.388422
  194        1.241449   0.332968
  195        1.248020   0.318537
  196        1.281091   0.251389
  197        1.511783   0.032354
  198        1.742096   0.003331
  199        1.810429   0.001685
  200        1.929415   0.000513
  201        2.038201   0.000173
  202        2.128913   0.000070
  203        2.274271   0.000016
  204        3.022732   0.000000
  205        3.318423   0.000000
  206        3.362805   0.000000
  207        4.190700   0.000000
  208        4.269492   0.000000
  209        4.374022   0.000000
  210        4.665265   0.000000
  211        4.787192   0.000000
  212        4.793077   0.000000
  213        5.535454   0.000000
  214        5.643105   0.000000
  215        5.980278   0.000000
  216        6.109729   0.000000
  217        6.375317   0.000000
  218        6.528914   0.000000
  219        6.631123   0.000000
  220        6.671820   0.000000
 
  0.0000000E+00  0.8333333E-01  0.0000000E+00  0.1851852E-01
    1      -11.066625   1.000000
    2       -8.017165   1.000000
    3       -6.674777   1.000000
    4       -5.945924   1.000000
    5       -5.895082   1.000000
    6       -5.700480   1.000000
    7       -5.593659   1.000000
    8       -5.573230   1.000000
    9       -5.565800   1.000000
   10       -5.510515   1.000000
   11       -5.446527   1.000000
   12       -5.376625   1.000000
   13       -5.366959   1.000000
   14       -5.030576   1.000000
   15       -5.002112   1.000000
   16       -4.997612   1.000000
   17       -4.944036   1.000000
   18       -4.904308   1.000000
   19       -4.892550   1.000000
   20       -4.552087   1.000000
   21       -4.532506   1.000000
   22       -4.496515   1.000000
   23       -4.487729   1.000000
   24       -4.404690   1.000000
   25       -4.358962   1.000000
   26       -4.312391   1.000000
   27       -4.267947   1.000000
   28       -4.264056   1.000000
   29       -4.197464   1.000000
   30       -4.190231   1.000000
   31       -4.171144   1.000000
   32       -4.131811   1.000000
   33       -4.098827   1.000000
   34       -4.074704   1.000000
   35       -4.074518   1.000000
   36       -4.054217   1.000000
   37       -4.030362   1.000000
   38       -3.993673   1.000000
   39       -3.959860   1.000000
   40       -3.860816   1.000000
   41       -3.844382   1.000000
   42       -3.592878   1.000000
   43       -3.553486   1.000000
   44       -3.545631   1.000000
   45       -3.478522   1.000000
   46       -3.435063   1.000000
   47       -3.410316   1.000000
   48       -3.397831   1.000000
   49       -3.390952   1.000000
   50       -3.303482   1.000000
   51       -3.275527   1.000000
   52       -3.176070   1.000000
   53       -3.149285   1.000000
   54       -3.127103   1.000000
   55       -3.125631   1.000000
   56       -3.053211   1.000000
   57       -3.052534   1.000000
   58       -2.871250   1.000000
   59       -2.658836   1.000000
   60       -2.647877   1.000000
   61       -2.558912   1.000000
   62       -2.557408   1.000000
   63       -2.549849   1.000000
   64       -2.532690   1.000000
   65       -2.479511   1.000000
   66       -2.472534   1.000000
   67       -2.441615   1.000000
   68       -2.427015   1.000000
   69       -2.403004   1.000000
   70       -2.381394   1.000000
   71       -2.335794   1.000000
   72       -2.333113   1.000000
   73       -2.298974   1.000000
   74       -2.293092   1.000000
   75       -2.262354   1.000000
   76       -2.227597   1.000000
   77       -2.201079   1.000000
   78       -2.167323   1.000000
   79       -2.163525   1.000000
   80       -2.142515   1.000000
   81       -2.126742   1.000000
   82       -2.089945   1.000000
   83       -2.069201   1.000000
   84       -2.047336   1.000000
   85       -2.030201   1.000000
   86       -1.945129   1.000000
   87       -1.932853   1.000000
   88       -1.900945   1.000000
   89       -1.885757   1.000000
   90       -1.883604   1.000000
   91       -1.852940   1.000000
   92       -1.827403   1.000000
   93       -1.812407   1.000000
   94       -1.780141   1.000000
   95       -1.765172   1.000000
   96       -1.760785   1.000000
   97       -1.725947   1.000000
   98       -1.683416   1.000000
   99       -1.682016   1.000000
  100       -1.655288   1.000000
  101       -1.583065   1.000000
  102       -1.559538   1.000000
  103       -1.531750   1.000000
  104       -1.520768   1.000000
  105       -1.513488   1.000000
  106       -1.505650   1.000000
  107       -1.502812   1.000000
  108       -1.442484   1.000000
  109       -1.408196   1.000000
  110       -1.351643   1.000000
  111       -1.182291   1.000000
  112       -1.179530   1.000000
  113       -1.135658   1.000000
  114       -1.037645   1.000000
  115       -1.033882   1.000000
  116       -0.962695   1.000000
  117       -0.961789   1.000000
  118       -0.929056   1.000000
  119       -0.887881   1.000000
  120       -0.882562   1.000000
  121       -0.857636   1.000000
  122       -0.804120   1.000000
  123       -0.771202   1.000000
  124       -0.770228   1.000000
  125       -0.651824   1.000000
  126       -0.612863   1.000000
  127       -0.584028   1.000000
  128       -0.576508   1.000000
  129       -0.429100   1.000000
  130       -0.419033   1.000000
  131       -0.358218   1.000000
  132       -0.354793   1.000000
  133       -0.330303   1.000000
  134       -0.326960   1.000000
  135       -0.307080   1.000000
  136       -0.306083   1.000000
  137       -0.289620   1.000000
  138       -0.220445   0.999999
  139       -0.190352   0.999999
  140       -0.175573   0.999999
  141       -0.117813   0.999997
  142       -0.073156   0.999996
  143       -0.048745   0.999995
  144       -0.035001   0.999994
  145       -0.002695   0.999992
  146        0.005143   0.999991
  147        0.025268   0.999990
  148        0.069947   0.999984
  149        0.134485   0.999969
  150        0.176530   0.999952
  151        0.191327   0.999945
  152        0.210740   0.999933
  153        0.239457   0.999911
  154        0.287389   0.999856
  155        0.335239   0.999768
  156        0.341403   0.999753
  157        0.345569   0.999742
  158        0.367916   0.999678
  159        0.387593   0.999608
  160        0.419312   0.999462
  161        0.470330   0.999104
  162        0.481653   0.998996
  163        0.489981   0.998909
  164        0.539671   0.998209
  165        0.558622   0.997836
  166        0.582035   0.997266
  167        0.587613   0.997110
  168        0.604513   0.996580
  169        0.611191   0.996344
  170        0.635741   0.995332
  171        0.646341   0.994812
  172        0.648850   0.994681
  173        0.694926   0.991595
  174        0.723685   0.988825
  175        0.736737   0.987287
  176        0.743979   0.986345
  177        0.785741   0.979413
  178        0.808597   0.974262
  179        0.835208   0.966677
  180        0.861733   0.956990
  181        0.869412   0.953716
  182        0.885201   0.946226
  183        0.917090   0.927492
  184        0.932465   0.916449
  185        0.952790   0.899511
  186        0.959923   0.892877
  187        0.967348   0.885564
  188        0.989805   0.860763
  189        0.990610   0.859796
  190        1.091785   0.690368
  191        1.180007   0.479918
  192        1.189038   0.457433
  193        1.218230   0.386368
  194        1.241518   0.332813
  195        1.248137   0.318282
  196        1.281636   0.250364
  197        1.511439   0.032462
  198        1.741118   0.003363
  199        1.811600   0.001665
  200        1.930203   0.000509
  201        2.037701   0.000174
  202        2.129172   0.000070
  203        2.273468   0.000016
  204        3.022852   0.000000
  205        3.318485   0.000000
  206        3.362671   0.000000
  207        4.190035   0.000000
  208        4.269182   0.000000
  209        4.375431   0.000000
  210        4.665799   0.000000
  211        4.788053   0.000000
  212        4.791411   0.000000
  213        5.535021   0.000000
  214        5.642836   0.000000
  215        5.981436   0.000000
  216        6.110310   0.000000
  217        6.366830   0.000000
  218        6.532319   0.000000
  219        6.654918   0.000000
  220        6.736556   0.000000
 
 -0.8333333E-01  0.0000000E+00  0.0000000E+00  0.1851852E-01
    1      -11.066624   1.000000
    2       -8.017164   1.000000
    3       -6.674773   1.000000
    4       -5.945376   1.000000
    5       -5.895604   1.000000
    6       -5.700465   1.000000
    7       -5.593596   1.000000
    8       -5.573250   1.000000
    9       -5.565908   1.000000
   10       -5.510663   1.000000
   11       -5.446449   1.000000
   12       -5.376708   1.000000
   13       -5.366819   1.000000
   14       -5.030871   1.000000
   15       -5.002141   1.000000
   16       -4.997238   1.000000
   17       -4.944005   1.000000
   18       -4.904283   1.000000
   19       -4.892605   1.000000
   20       -4.552053   1.000000
   21       -4.532523   1.000000
   22       -4.496486   1.000000
   23       -4.487841   1.000000
   24       -4.404668   1.000000
   25       -4.358920   1.000000
   26       -4.312486   1.000000
   27       -4.267840   1.000000
   28       -4.264076   1.000000
   29       -4.197391   1.000000
   30       -4.190247   1.000000
   31       -4.171110   1.000000
   32       -4.131635   1.000000
   33       -4.098466   1.000000
   34       -4.074841   1.000000
   35       -4.074477   1.000000
   36       -4.054681   1.000000
   37       -4.030711   1.000000
   38       -3.993606   1.000000
   39       -3.959861   1.000000
   40       -3.860545   1.000000
   41       -3.844436   1.000000
   42       -3.592864   1.000000
   43       -3.553536   1.000000
   44       -3.545495   1.000000
   45       -3.478744   1.000000
   46       -3.434965   1.000000
   47       -3.410300   1.000000
   48       -3.397919   1.000000
   49       -3.390880   1.000000
   50       -3.303692   1.000000
   51       -3.275573   1.000000
   52       -3.175918   1.000000
   53       -3.149263   1.000000
   54       -3.126941   1.000000
   55       -3.125832   1.000000
   56       -3.053299   1.000000
   57       -3.052415   1.000000
   58       -2.871319   1.000000
   59       -2.658528   1.000000
   60       -2.648316   1.000000
   61       -2.558857   1.000000
   62       -2.557693   1.000000
   63       -2.549635   1.000000
   64       -2.533008   1.000000
   65       -2.479372   1.000000
   66       -2.472759   1.000000
   67       -2.441560   1.000000
   68       -2.426704   1.000000
   69       -2.402954   1.000000
   70       -2.381582   1.000000
   71       -2.335956   1.000000
   72       -2.333054   1.000000
   73       -2.299018   1.000000
   74       -2.293139   1.000000
   75       -2.262354   1.000000
   76       -2.227370   1.000000
   77       -2.201727   1.000000
   78       -2.166956   1.000000
   79       -2.163708   1.000000
   80       -2.141514   1.000000
   81       -2.126739   1.000000
   82       -2.089625   1.000000
   83       -2.069099   1.000000
   84       -2.047772   1.000000
   85       -2.030650   1.000000
   86       -1.944898   1.000000
   87       -1.932781   1.000000
   88       -1.901027   1.000000
   89       -1.885823   1.000000
   90       -1.882766   1.000000
   91       -1.853229   1.000000
   92       -1.828036   1.000000
   93       -1.812592   1.000000
   94       -1.780349   1.000000
   95       -1.764557   1.000000
   96       -1.760742   1.000000
   97       -1.725771   1.000000
   98       -1.683445   1.000000
   99       -1.681950   1.000000
  100       -1.655814   1.000000
  101       -1.582150   1.000000
  102       -1.560169   1.000000
  103       -1.532088   1.000000
  104       -1.520528   1.000000
  105       -1.513388   1.000000
  106       -1.505628   1.000000
  107       -1.502551   1.000000
  108       -1.441984   1.000000
  109       -1.408348   1.000000
  110       -1.351768   1.000000
  111       -1.182539   1.000000
  112       -1.179787   1.000000
  113       -1.135859   1.000000
  114       -1.037629   1.000000
  115       -1.033883   1.000000
  116       -0.962629   1.000000
  117       -0.961641   1.000000
  118       -0.928666   1.000000
  119       -0.887845   1.000000
  120       -0.882614   1.000000
  121       -0.857594   1.000000
  122       -0.804394   1.000000
  123       -0.771407   1.000000
  124       -0.769845   1.000000
  125       -0.651769   1.000000
  126       -0.612892   1.000000
  127       -0.583993   1.000000
  128       -0.576431   1.000000
  129       -0.429236   1.000000
  130       -0.419051   1.000000
  131       -0.359129   1.000000
  132       -0.353910   1.000000
  133       -0.330378   1.000000
  134       -0.326868   1.000000
  135       -0.306912   1.000000
  136       -0.305835   1.000000
  137       -0.289469   1.000000
  138       -0.220593   0.999999
  139       -0.190342   0.999999
  140       -0.175591   0.999999
  141       -0.117929   0.999997
  142       -0.072935   0.999996
  143       -0.048771   0.999995
  144       -0.035007   0.999994
  145       -0.003034   0.999992
  146        0.005433   0.999991
  147        0.025130   0.999990
  148        0.069773   0.999984
  149        0.134806   0.999969
  150        0.176176   0.999953
  151        0.191075   0.999945
  152        0.210649   0.999933
  153        0.239671   0.999911
  154        0.287111   0.999856
  155        0.335263   0.999768
  156        0.341522   0.999753
  157        0.345600   0.999742
  158        0.368055   0.999678
  159        0.387601   0.999608
  160        0.419333   0.999462
  161        0.470345   0.999104
  162        0.481617   0.998997
  163        0.490167   0.998907
  164        0.539657   0.998209
  165        0.558518   0.997838
  166        0.582021   0.997267
  167        0.587875   0.997102
  168        0.604077   0.996594
  169        0.610937   0.996353
  170        0.635721   0.995333
  171        0.646038   0.994828
  172        0.648888   0.994679
  173        0.695215   0.991570
  174        0.723658   0.988828
  175        0.736707   0.987291
  176        0.743793   0.986370
  177        0.786030   0.979355
  178        0.808233   0.974353
  179        0.835176   0.966687
  180        0.861858   0.956939
  181        0.869687   0.953595
  182        0.885492   0.946078
  183        0.917022   0.927538
  184        0.932805   0.916188
  185        0.952860   0.899447
  186        0.960354   0.892463
  187        0.967385   0.885527
  188        0.989573   0.861041
  189        0.990523   0.859901
  190        1.091197   0.691625
  191        1.180291   0.479208
  192        1.189122   0.457223
  193        1.217894   0.387165
  194        1.241429   0.333012
  195        1.248080   0.318407
  196        1.281440   0.250733
  197        1.511580   0.032417
  198        1.741481   0.003351
  199        1.811094   0.001673
  200        1.929760   0.000511
  201        2.037960   0.000173
  202        2.129324   0.000070
  203        2.273655   0.000016
  204        3.022880   0.000000
  205        3.318314   0.000000
  206        3.362810   0.000000
  207        4.190219   0.000000
  208        4.269198   0.000000
  209        4.375074   0.000000
  210        4.665659   0.000000
  211        4.787409   0.000000
  212        4.792259   0.000000
  213        5.535224   0.000000
  214        5.642895   0.000000
  215        5.980955   0.000000
  216        6.110022   0.000000
  217        6.363320   0.000000
  218        6.414014   0.000000
  219        6.549088   0.000000
  220        6.690419   0.000000
 
  0.2500000E+00  0.8333333E-01  0.0000000E+00  0.1851852E-01
    1      -11.055362   1.000000
    2       -7.867468   1.000000
    3       -6.554670   1.000000
    4       -6.192616   1.000000
    5       -6.013436   1.000000
    6       -5.749602   1.000000
    7       -5.660092   1.000000
    8       -5.446703   1.000000
    9       -5.430634   1.000000
   10       -5.359445   1.000000
   11       -5.336742   1.000000
   12       -5.268366   1.000000
   13       -5.239700   1.000000
   14       -5.095134   1.000000
   15       -5.010798   1.000000
   16       -4.987929   1.000000
   17       -4.908425   1.000000
   18       -4.852536   1.000000
   19       -4.778395   1.000000
   20       -4.585559   1.000000
   21       -4.529880   1.000000
   22       -4.489268   1.000000
   23       -4.436866   1.000000
   24       -4.401462   1.000000
   25       -4.379686   1.000000
   26       -4.330361   1.000000
   27       -4.297875   1.000000
   28       -4.262027   1.000000
   29       -4.247711   1.000000
   30       -4.238309   1.000000
   31       -4.214102   1.000000
   32       -4.188140   1.000000
   33       -4.142788   1.000000
   34       -4.104849   1.000000
   35       -4.070017   1.000000
   36       -4.006286   1.000000
   37       -3.930491   1.000000
   38       -3.896483   1.000000
   39       -3.861024   1.000000
   40       -3.817872   1.000000
   41       -3.781541   1.000000
   42       -3.640945   1.000000
   43       -3.566151   1.000000
   44       -3.541737   1.000000
   45       -3.523933   1.000000
   46       -3.510428   1.000000
   47       -3.489256   1.000000
   48       -3.445661   1.000000
   49       -3.417588   1.000000
   50       -3.341669   1.000000
   51       -3.264087   1.000000
   52       -3.219527   1.000000
   53       -3.159783   1.000000
   54       -3.099350   1.000000
   55       -3.073670   1.000000
   56       -3.051942   1.000000
   57       -3.020770   1.000000
   58       -2.943104   1.000000
   59       -2.848933   1.000000
   60       -2.812117   1.000000
   61       -2.717957   1.000000
   62       -2.686934   1.000000
   63       -2.654168   1.000000
   64       -2.618036   1.000000
   65       -2.593992   1.000000
   66       -2.575967   1.000000
   67       -2.545546   1.000000
   68       -2.499342   1.000000
   69       -2.466127   1.000000
   70       -2.412418   1.000000
   71       -2.394211   1.000000
   72       -2.371125   1.000000
   73       -2.362934   1.000000
   74       -2.347790   1.000000
   75       -2.311133   1.000000
   76       -2.290867   1.000000
   77       -2.205840   1.000000
   78       -2.173481   1.000000
   79       -2.146820   1.000000
   80       -2.101562   1.000000
   81       -2.082407   1.000000
   82       -2.073783   1.000000
   83       -2.057893   1.000000
   84       -2.029381   1.000000
   85       -2.001922   1.000000
   86       -1.986660   1.000000
   87       -1.960240   1.000000
   88       -1.936584   1.000000
   89       -1.912816   1.000000
   90       -1.883676   1.000000
   91       -1.874174   1.000000
   92       -1.847185   1.000000
   93       -1.839163   1.000000
   94       -1.830806   1.000000
   95       -1.778711   1.000000
   96       -1.767933   1.000000
   97       -1.747860   1.000000
   98       -1.728917   1.000000
   99       -1.706113   1.000000
  100       -1.664055   1.000000
  101       -1.636673   1.000000
  102       -1.615913   1.000000
  103       -1.605677   1.000000
  104       -1.552867   1.000000
  105       -1.548649   1.000000
  106       -1.523450   1.000000
  107       -1.469633   1.000000
  108       -1.435368   1.000000
  109       -1.420529   1.000000
  110       -1.367951   1.000000
  111       -1.359146   1.000000
  112       -1.309071   1.000000
  113       -1.241851   1.000000
  114       -1.201569   1.000000
  115       -1.136994   1.000000
  116       -1.105938   1.000000
  117       -0.999924   1.000000
  118       -0.979450   1.000000
  119       -0.950617   1.000000
  120       -0.914655   1.000000
  121       -0.872538   1.000000
  122       -0.861297   1.000000
  123       -0.822457   1.000000
  124       -0.785860   1.000000
  125       -0.721125   1.000000
  126       -0.683054   1.000000
  127       -0.650536   1.000000
  128       -0.618987   1.000000
  129       -0.568066   1.000000
  130       -0.515115   1.000000
  131       -0.487076   1.000000
  132       -0.461378   1.000000
  133       -0.435566   1.000000
  134       -0.400995   1.000000
  135       -0.363278   1.000000
  136       -0.335472   1.000000
  137       -0.296206   1.000000
  138       -0.258779   0.999999
  139       -0.205727   0.999999
  140       -0.147018   0.999998
  141       -0.140025   0.999998
  142       -0.109829   0.999997
  143       -0.093212   0.999997
  144       -0.060086   0.999996
  145       -0.029675   0.999994
  146       -0.002308   0.999992
  147        0.021776   0.999990
  148        0.042158   0.999988
  149        0.063912   0.999985
  150        0.094749   0.999979
  151        0.134580   0.999969
  152        0.148916   0.999964
  153        0.197147   0.999942
  154        0.215710   0.999930
  155        0.232714   0.999917
  156        0.289415   0.999853
  157        0.322702   0.999795
  158        0.362583   0.999695
  159        0.408463   0.999517
  160        0.445780   0.999299
  161        0.501307   0.998779
  162        0.514281   0.998610
  163        0.589116   0.997066
  164        0.600266   0.996721
  165        0.617426   0.996110
  166        0.630727   0.995559
  167        0.691794   0.991852
  168        0.706209   0.990600
  169        0.735643   0.987423
  170        0.786585   0.979242
  171        0.808868   0.974194
  172        0.833751   0.967143
  173        0.842990   0.964077
  174        0.887856   0.944859
  175        0.905511   0.934904
  176        0.929387   0.918776
  177        0.952951   0.899364
  178        0.986202   0.865025
  179        1.013250   0.830221
  180        1.026668   0.810461
  181        1.047576   0.776248
  182        1.056996   0.759462
  183        1.100401   0.671657
  184        1.112529   0.644376
  185        1.142249   0.573759
  186        1.174005   0.494912
  187        1.185608   0.465958
  188        1.205265   0.417522
  189        1.243327   0.328809
  190        1.264133   0.284624
  191        1.328665   0.172651
  192        1.367466   0.124013
  193        1.388406   0.102997
  194        1.444857   0.061291
  195        1.483798   0.042359
  196        1.618160   0.011409
  197        1.653473   0.008042
  198        1.717881   0.004239
  199        2.006656   0.000237
  200        2.175484   0.000044
  201        2.407333   0.000004
  202        2.533138   0.000001
  203        2.804519   0.000000
  204        2.935363   0.000000
  205        3.342529   0.000000
  206        3.555950   0.000000
  207        3.958367   0.000000
  208        4.101367   0.000000
  209        4.459523   0.000000
  210        4.631503   0.000000
  211        4.822570   0.000000
  212        5.051268   0.000000
  213        5.160998   0.000000
  214        5.273067   0.000000
  215        5.585472   0.000000
  216        5.810771   0.000000
  217        6.110220   0.000000
  218        6.298103   0.000000
  219        6.466996   0.000000
  220        6.682186   0.000000
 
  0.1666667E+00  0.2500000E+00  0.0000000E+00  0.1851852E-01
    1      -11.055355   1.000000
    2       -7.867470   1.000000
    3       -6.554695   1.000000
    4       -6.192278   1.000000
    5       -6.014126   1.000000
    6       -5.749213   1.000000
    7       -5.660390   1.000000
    8       -5.446512   1.000000
    9       -5.430488   1.000000
   10       -5.359215   1.000000
   11       -5.336537   1.000000
   12       -5.268877   1.000000
   13       -5.239551   1.000000