<?xml version="1.0" encoding="ISO-8859-1"?>
<modeling>
 <generator>
  <i name="program" type="string">vasp </i>
  <i name="version" type="string">5.4.1  </i>
  <i name="subversion" type="string">24Jun15 (build Oct 10 2016 12:42:00) complex                          parallel </i>
  <i name="platform" type="string">IFC91_ompi </i>
  <i name="date" type="string">2018 05 20 </i>
  <i name="time" type="string">21:53:07 </i>
 </generator>
 <incar>
  <i type="string" name="PREC">normal</i>
  <i type="string" name="ALGO"> fast</i>
  <i type="int" name="ISPIN">     1</i>
  <i type="int" name="NELMDL">    -4</i>
  <i type="int" name="NELMIN">     4</i>
  <i name="EDIFF">      0.00000100</i>
  <i name="ENCUT">    400.00000000</i>
  <i type="string" name="LREAL"> auto</i>
  <i type="int" name="ISMEAR">    -1</i>
  <i name="SIGMA">      0.10000000</i>
  <i type="logical" name="LWAVE"> F  </i>
  <i type="logical" name="LCHARG"> F  </i>
  <v type="int" name="KPOINT_BSE">    -1     0     0     0</v>
  <i type="string" name="GGA"> PE</i>
 </incar>
 <kpoints>
  <generation param="Monkhorst-Pack">
   <v type="int" name="divisions">       6        6        1 </v>
   <v name="usershift">      0.00000000       0.00000000       0.00000000 </v>
   <v name="genvec1">      0.16666667      -0.00000000       0.00000000 </v>
   <v name="genvec2">      0.00000000       0.16666667       0.00000000 </v>
   <v name="genvec3">      0.00000000       0.00000000       1.00000000 </v>
   <v name="shift">      0.50000000       0.50000000       0.00000000 </v>
  </generation>
  <varray name="kpointlist" >
   <v>       0.08333333       0.08333333       0.00000000 </v>
   <v>       0.00000000       0.08333333       0.00000000 </v>
   <v>      -0.08333333       0.00000000       0.00000000 </v>
   <v>       0.25000000       0.08333333       0.00000000 </v>
   <v>       0.16666667       0.25000000       0.00000000 </v>
   <v>      -0.08333333       0.16666667       0.00000000 </v>
   <v>       0.16666667      -0.08333333       0.00000000 </v>
   <v>      -0.08333333      -0.25000000       0.00000000 </v>
   <v>      -0.25000000      -0.16666667       0.00000000 </v>
   <v>       0.41666667       0.08333333       0.00000000 </v>
   <v>       0.33333333       0.41666667       0.00000000 </v>
   <v>      -0.08333333       0.33333333       0.00000000 </v>
   <v>       0.33333333      -0.08333333       0.00000000 </v>
   <v>      -0.08333333      -0.41666667       0.00000000 </v>
   <v>      -0.41666667      -0.33333333       0.00000000 </v>
   <v>      -0.41666667       0.08333333       0.00000000 </v>
   <v>       0.50000000      -0.41666667       0.00000000 </v>
   <v>      -0.08333333       0.50000000       0.00000000 </v>
   <v>       0.50000000      -0.08333333       0.00000000 </v>
   <v>      -0.08333333       0.41666667       0.00000000 </v>
   <v>       0.41666667       0.50000000       0.00000000 </v>
   <v>      -0.25000000       0.08333333       0.00000000 </v>
   <v>      -0.33333333      -0.25000000       0.00000000 </v>
   <v>      -0.08333333      -0.33333333       0.00000000 </v>
   <v>      -0.33333333      -0.08333333       0.00000000 </v>
   <v>      -0.08333333       0.25000000       0.00000000 </v>
   <v>       0.25000000       0.33333333       0.00000000 </v>
   <v>      -0.08333333       0.08333333       0.00000000 </v>
   <v>      -0.16666667      -0.08333333       0.00000000 </v>
   <v>      -0.08333333      -0.16666667       0.00000000 </v>
   <v>       0.25000000       0.25000000       0.00000000 </v>
   <v>       0.00000000       0.25000000       0.00000000 </v>
   <v>      -0.25000000       0.00000000       0.00000000 </v>
   <v>       0.41666667       0.25000000       0.00000000 </v>
   <v>       0.16666667       0.41666667       0.00000000 </v>
   <v>      -0.25000000       0.16666667       0.00000000 </v>
   <v>       0.16666667      -0.25000000       0.00000000 </v>
   <v>      -0.25000000      -0.41666667       0.00000000 </v>
   <v>      -0.41666667      -0.16666667       0.00000000 </v>
   <v>      -0.41666667       0.25000000       0.00000000 </v>
   <v>       0.33333333      -0.41666667       0.00000000 </v>
   <v>      -0.25000000       0.33333333       0.00000000 </v>
   <v>       0.33333333      -0.25000000       0.00000000 </v>
   <v>      -0.25000000       0.41666667       0.00000000 </v>
   <v>       0.41666667      -0.33333333       0.00000000 </v>
   <v>      -0.25000000       0.25000000       0.00000000 </v>
   <v>       0.50000000      -0.25000000       0.00000000 </v>
   <v>      -0.25000000       0.50000000       0.00000000 </v>
   <v>       0.41666667       0.41666667       0.00000000 </v>
   <v>       0.00000000       0.41666667       0.00000000 </v>
   <v>      -0.41666667      -0.00000000       0.00000000 </v>
   <v>      -0.41666667       0.41666667       0.00000000 </v>
   <v>       0.16666667      -0.41666667       0.00000000 </v>
   <v>      -0.41666667       0.16666667       0.00000000 </v>
  </varray>
  <varray name="weights" >
   <v>       0.01851852 </v>
   <v>       0.01851852 </v>
   <v>       0.01851852 </v>
   <v>       0.01851852 </v>
   <v>       0.01851852 </v>
   <v>       0.01851852 </v>
   <v>       0.01851852 </v>
   <v>       0.01851852 </v>
   <v>       0.01851852 </v>
   <v>       0.01851852 </v>
   <v>       0.01851852 </v>
   <v>       0.01851852 </v>
   <v>       0.01851852 </v>
   <v>       0.01851852 </v>
   <v>       0.01851852 </v>
   <v>       0.01851852 </v>
   <v>       0.01851852 </v>
   <v>       0.01851852 </v>
   <v>       0.01851852 </v>
   <v>       0.01851852 </v>
   <v>       0.01851852 </v>
   <v>       0.01851852 </v>
   <v>       0.01851852 </v>
   <v>       0.01851852 </v>
   <v>       0.01851852 </v>
   <v>       0.01851852 </v>
   <v>       0.01851852 </v>
   <v>       0.01851852 </v>
   <v>       0.01851852 </v>
   <v>       0.01851852 </v>
   <v>       0.01851852 </v>
   <v>       0.01851852 </v>
   <v>       0.01851852 </v>
   <v>       0.01851852 </v>
   <v>       0.01851852 </v>
   <v>       0.01851852 </v>
   <v>       0.01851852 </v>
   <v>       0.01851852 </v>
   <v>       0.01851852 </v>
   <v>       0.01851852 </v>
   <v>       0.01851852 </v>
   <v>       0.01851852 </v>
   <v>       0.01851852 </v>
   <v>       0.01851852 </v>
   <v>       0.01851852 </v>
   <v>       0.01851852 </v>
   <v>       0.01851852 </v>
   <v>       0.01851852 </v>
   <v>       0.01851852 </v>
   <v>       0.01851852 </v>
   <v>       0.01851852 </v>
   <v>       0.01851852 </v>
   <v>       0.01851852 </v>
   <v>       0.01851852 </v>
  </varray>
 </kpoints>
 <parameters>
  <separator name="general" >
   <i type="string" name="SYSTEM">unknown system</i>
   <i type="logical" name="LCOMPAT"> F  </i>
  </separator>
  <separator name="electronic" >
   <i type="string" name="PREC">normal</i>
   <i name="ENMAX">    400.00000000</i>
   <i name="ENAUG">    644.87300000</i>
   <i name="EDIFF">      0.00000100</i>
   <i type="int" name="IALGO">    68</i>
   <i type="int" name="IWAVPR">    10</i>
   <i type="int" name="NBANDS">   220</i>
   <i name="NELECT">    364.00000000</i>
   <i type="int" name="TURBO">     0</i>
   <i type="int" name="IRESTART">     0</i>
   <i type="int" name="NREBOOT">     0</i>
   <i type="int" name="NMIN">     0</i>
   <i name="EREF">      0.00000000</i>
   <separator name="electronic smearing" >
    <i type="int" name="ISMEAR">    -1</i>
    <i name="SIGMA">      0.10000000</i>
    <i name="KSPACING">      0.50000000</i>
    <i type="logical" name="KGAMMA"> T  </i>
   </separator>
   <separator name="electronic projectors" >
    <i type="logical" name="LREAL"> T  </i>
    <v name="ROPT">     -0.00050000     -0.00050000</v>
    <i type="int" name="LMAXPAW">  -100</i>
    <i type="int" name="LMAXMIX">     2</i>
    <i type="logical" name="NLSPLINE"> F  </i>
   </separator>
   <separator name="electronic startup" >
    <i type="int" name="ISTART">     0</i>
    <i type="int" name="ICHARG">     2</i>
    <i type="int" name="INIWAV">     1</i>
   </separator>
   <separator name="electronic spin" >
    <i type="int" name="ISPIN">     1</i>
    <i type="logical" name="LNONCOLLINEAR"> F  </i>
    <v name="MAGMOM">      1.00000000      1.00000000      1.00000000      1.00000000      1.00000000      1.00000000      1.00000000      1.00000000      1.00000000      1.00000000      1.00000000      1.00000000      1.00000000      1.00000000      1.00000000      1.00000000      1.00000000      1.00000000      1.00000000      1.00000000
      1.00000000      1.00000000      1.00000000      1.00000000      1.00000000      1.00000000      1.00000000      1.00000000      1.00000000      1.00000000      1.00000000      1.00000000      1.00000000      1.00000000      1.00000000      1.00000000      1.00000000</v>
    <i name="NUPDOWN">     -1.00000000</i>
    <i type="logical" name="LSORBIT"> F  </i>
    <v name="SAXIS">      0.00000000      0.00000000      1.00000000</v>
    <i type="logical" name="LSPIRAL"> F  </i>
    <v name="QSPIRAL">      0.00000000      0.00000000      0.00000000</v>
    <i type="logical" name="LZEROZ"> F  </i>
   </separator>
   <separator name="electronic exchange-correlation" >
    <i type="logical" name="LASPH"> F  </i>
    <i type="logical" name="LMETAGGA"> F  </i>
   </separator>
   <separator name="electronic convergence" >
    <i type="int" name="NELM">    60</i>
    <i type="int" name="NELMDL">    -4</i>
    <i type="int" name="NELMIN">     4</i>
    <i name="ENINI">    400.00000000</i>
    <separator name="electronic convergence detail" >
     <i type="logical" name="LDIAG"> T  </i>
     <i type="logical" name="LSUBROT"> F  </i>
     <i name="WEIMIN">      0.00000000</i>
     <i name="EBREAK">      0.00000000</i>
     <i name="DEPER">      0.30000000</i>
     <i type="int" name="NRMM">     4</i>
     <i name="TIME">      0.40000000</i>
    </separator>
   </separator>
   <separator name="electronic mixer" >
    <i name="AMIX">      0.40000000</i>
    <i name="BMIX">      1.00000000</i>
    <i name="AMIN">      0.10000000</i>
    <i name="AMIX_MAG">      1.60000000</i>
    <i name="BMIX_MAG">      1.00000000</i>
    <separator name="electronic mixer details" >
     <i type="int" name="IMIX">     4</i>
     <i type="logical" name="MIXFIRST"> F  </i>
     <i type="int" name="MAXMIX">   -45</i>
     <i name="WC">    100.00000000</i>
     <i type="int" name="INIMIX">     1</i>
     <i type="int" name="MIXPRE">     1</i>
     <i type="int" name="MREMOVE">     5</i>
    </separator>
   </separator>
   <separator name="electronic dipolcorrection" >
    <i type="logical" name="LDIPOL"> F  </i>
    <i type="logical" name="LMONO"> F  </i>
    <i type="int" name="IDIPOL">     0</i>
    <i name="EPSILON">      1.00000000</i>
    <v name="DIPOL">   -100.00000000   -100.00000000   -100.00000000</v>
    <i name="EFIELD">      0.00000000</i>
   </separator>
  </separator>
  <separator name="grids" >
   <i type="int" name="NGX">    42</i>
   <i type="int" name="NGY">    42</i>
   <i type="int" name="NGZ">   108</i>
   <i type="int" name="NGXF">    84</i>
   <i type="int" name="NGYF">    84</i>
   <i type="int" name="NGZF">   216</i>
   <i type="logical" name="ADDGRID"> F  </i>
  </separator>
  <separator name="ionic" >
   <i type="int" name="NSW">     0</i>
   <i type="int" name="IBRION">    -1</i>
   <i type="int" name="ISIF">     2</i>
   <i name="PSTRESS">      0.00000000</i>
   <i name="EDIFFG">      0.00001000</i>
   <i type="int" name="NFREE">     0</i>
   <i name="POTIM">      0.50000000</i>
   <i name="SMASS">     -3.00000000</i>
   <i name="SCALEE">      1.00000000</i>
  </separator>
  <separator name="ionic md" >
   <i name="TEBEG">      0.00010000</i>
   <i name="TEEND">      0.00010000</i>
   <i type="int" name="NBLOCK">     1</i>
   <i type="int" name="KBLOCK">     1</i>
   <i type="int" name="NPACO">   256</i>
   <i name="APACO">     16.00000000</i>
  </separator>
  <separator name="symmetry" >
   <i type="int" name="ISYM">     2</i>
   <i name="SYMPREC">      0.00001000</i>
  </separator>
  <separator name="dos" >
   <i type="logical" name="LORBIT"> F  </i>
   <v name="RWIGS">     -1.00000000     -1.00000000</v>
   <i type="int" name="NEDOS">   301</i>
   <i name="EMIN">     10.00000000</i>
   <i name="EMAX">    -10.00000000</i>
   <i name="EFERMI">      0.00000000</i>
  </separator>
  <separator name="writing" >
   <i type="int" name="NWRITE">     2</i>
   <i type="logical" name="LWAVE"> F  </i>
   <i type="logical" name="LCHARG"> F  </i>
   <i type="logical" name="LPARD"> F  </i>
   <i type="logical" name="LVTOT"> F  </i>
   <i type="logical" name="LVHAR"> F  </i>
   <i type="logical" name="LELF"> F  </i>
   <i type="logical" name="LOPTICS"> F  </i>
   <v name="STM">      0.00000000      0.00000000      0.00000000      0.00000000      0.00000000      0.00000000      0.00000000</v>
  </separator>
  <separator name="performance" >
   <i type="int" name="NPAR">     5</i>
   <i type="int" name="NSIM">     4</i>
   <i type="int" name="NBLK">    -1</i>
   <i type="logical" name="LPLANE"> T  </i>
   <i type="logical" name="LSCALAPACK"> T  </i>
   <i type="logical" name="LSCAAWARE"> F  </i>
   <i type="logical" name="LSCALU"> F  </i>
   <i type="logical" name="LASYNC"> F  </i>
   <i type="logical" name="LORBITALREAL"> F  </i>
  </separator>
  <separator name="miscellaneous" >
   <i type="int" name="IDIOT">     3</i>
   <i type="logical" name="LMUSIC"> F  </i>
   <v name="POMASS">    195.08000000     12.01100000</v>
   <v name="DARWINR">      0.00000000      0.00000000</v>
   <v name="DARWINV">      1.00000000      1.00000000</v>
   <i type="logical" name="LCORR"> T  </i>
  </separator>
  <i type="logical" name="GGA_COMPAT"> T  </i>
  <i type="logical" name="LBERRY"> F  </i>
  <i type="int" name="ICORELEVEL">     0</i>
  <i type="logical" name="LDAU"> F  </i>
  <i type="int" name="I_CONSTRAINED_M">     0</i>
  <separator name="electronic exchange-correlation" >
   <i type="string" name="GGA">PE</i>
   <i type="int" name="VOSKOWN">     0</i>
   <i type="logical" name="LHFCALC"> F  </i>
   <i type="string" name="PRECFOCK"></i>
   <i type="logical" name="LSYMGRAD"> F  </i>
   <i type="logical" name="LHFONE"> F  </i>
   <i type="logical" name="LRHFCALC"> F  </i>
   <i type="logical" name="LTHOMAS"> F  </i>
   <i type="logical" name="LMODELHF"> F  </i>
   <i name="ENCUT4O">     -1.00000000</i>
   <i type="int" name="EXXOEP">     0</i>
   <i type="int" name="FOURORBIT">     0</i>
   <i name="AEXX">      0.00000000</i>
   <i name="HFALPHA">      0.00000000</i>
   <i name="MCALPHA">      0.00000000</i>
   <i name="ALDAX">      1.00000000</i>
   <i name="AGGAX">      1.00000000</i>
   <i name="ALDAC">      1.00000000</i>
   <i name="AGGAC">      1.00000000</i>
   <i type="int" name="NKREDX">     1</i>
   <i type="int" name="NKREDY">     1</i>
   <i type="int" name="NKREDZ">     1</i>
   <i type="logical" name="SHIFTRED"> F  </i>
   <i type="logical" name="ODDONLY"> F  </i>
   <i type="logical" name="EVENONLY"> F  </i>
   <i type="int" name="LMAXFOCK">     0</i>
   <i type="int" name="NMAXFOCKAE">     0</i>
   <i type="logical" name="LFOCKAEDFT"> F  </i>
   <i name="HFSCREEN">      0.00000000</i>
   <i name="HFSCREENC">      0.00000000</i>
   <i type="int" name="NBANDSGWLOW">     0</i>
  </separator>
  <separator name="vdW DFT" >
   <i type="logical" name="LUSE_VDW"> F  </i>
   <i name="Zab_VDW">     -0.84910000</i>
   <i name="PARAM1">      0.12340000</i>
   <i name="PARAM2">      1.00000000</i>
   <i name="PARAM3">      0.00000000</i>
  </separator>
  <separator name="model GW" >
   <i type="int" name="MODEL_GW">     0</i>
   <i name="MODEL_EPS0">     21.78945654</i>
   <i name="MODEL_ALPHA">      1.00000000</i>
  </separator>
  <separator name="linear response parameters" >
   <i type="logical" name="LEPSILON"> F  </i>
   <i type="logical" name="LRPA"> F  </i>
   <i type="logical" name="LNABLA"> F  </i>
   <i type="logical" name="LVEL"> F  </i>
   <i type="int" name="KINTER">     0</i>
   <i name="CSHIFT">      0.10000000</i>
   <i name="OMEGAMAX">     -1.00000000</i>
   <i name="DEG_THRESHOLD">      0.00200000</i>
  </separator>
  <separator name="orbital magnetization" >
   <i type="logical" name="NUCIND"> F  </i>
   <v name="MAGPOS">      0.00000000      0.00000000      0.00000000</v>
   <i type="logical" name="LNICSALL"> T  </i>
   <i type="logical" name="ORBITALMAG"> F  </i>
   <i type="logical" name="LMAGBLOCH"> F  </i>
   <i type="logical" name="LCHIMAG"> F  </i>
   <i type="logical" name="LGAUGE"> T  </i>
   <i type="int" name="MAGATOM">     0</i>
   <v name="MAGDIPOL">      0.00000000      0.00000000      0.00000000</v>
   <v name="AVECCONST">      0.00000000      0.00000000      0.00000000</v>
  </separator>
  <separator name="response functions" >
   <i type="logical" name="LADDER"> F  </i>
   <i type="logical" name="LFXC"> F  </i>
   <i type="logical" name="LHARTREE"> T  </i>
   <i type="int" name="IBSE">     0</i>
   <v type="int" name="KPOINT">    -1     0     0     0</v>
   <i type="logical" name="LTCTE"> F  </i>
   <i type="logical" name="LTETE"> F  </i>
   <i type="logical" name="LTRIPLET"> F  </i>
   <i type="logical" name="LFXCEPS"> F  </i>
   <i type="logical" name="LFXHEG"> F  </i>
   <i type="int" name="NATURALO">     0</i>
   <i type="logical" name="L2ORDER"> F  </i>
   <i type="logical" name="LUSEW"> F  </i>
   <i name="ENCUTGW">     -2.00000000</i>
   <i name="ENCUTGWSOFT">     -2.00000000</i>
   <i name="ENCUTLF">     -1.00000000</i>
   <i type="int" name="LMAXMP2">    -1</i>
   <i name="SCISSOR">      0.00000000</i>
   <i type="int" name="NOMEGA">     0</i>
   <i type="int" name="NOMEGAR">     0</i>
   <i type="int" name="NBANDSGW">    -1</i>
   <i type="int" name="NBANDSO">    -1</i>
   <i type="int" name="NBANDSV">    -1</i>
   <i type="int" name="NELM">     1</i>
   <i type="int" name="NELMHF">     1</i>
   <i type="int" name="DIM">     3</i>
   <i type="int" name="ANTIRES">     0</i>
   <i name="OMEGAMAX">    -30.00000000</i>
   <i name="OMEGAMIN">    -30.00000000</i>
   <i name="OMEGATL">   -200.00000000</i>
   <i type="int" name="OMEGAGRID">     0</i>
   <i name="CSHIFT">     -0.10000000</i>
   <i type="logical" name="SELFENERGY"> F  </i>
   <i type="logical" name="LSPECTRAL"> F  </i>
   <i type="logical" name="LSPECTRALGW"> F  </i>
   <i type="logical" name="LSINGLES"> F  </i>
   <i type="logical" name="LFERMIGW"> F  </i>
   <i type="logical" name="ODDONLYGW"> F  </i>
   <i type="logical" name="EVENONLYGW"> F  </i>
   <i type="int" name="NKREDLFX">     1</i>
   <i type="int" name="NKREDLFY">     1</i>
   <i type="int" name="NKREDLFZ">     1</i>
   <i type="int" name="MAXMEM">  1800</i>
   <i type="int" name="TELESCOPE">     0</i>
   <i type="int" name="TAUPAR">     1</i>
   <i type="int" name="OMEGAPAR">    -1</i>
   <i name="LAMBDA">      1.00000000</i>
  </separator>
  <separator name="External order field" >
   <i name="OFIELD_KAPPA">      0.00000000</i>
   <v name="OFIELD_K">      0.00000000      0.00000000      0.00000000</v>
   <i name="OFIELD_Q6_NEAR">      0.00000000</i>
   <i name="OFIELD_Q6_FAR">      0.00000000</i>
   <i name="OFIELD_A">      0.00000000</i>
  </separator>
 </parameters>
 <atominfo>
  <atoms>      37 </atoms>
  <types>       2 </types>
  <array name="atoms" >
   <dimension dim="1">ion</dimension>
   <field type="string">element</field>
   <field type="int">atomtype</field>
   <set>
    <rc><c>Pt</c><c>   1</c></rc>
    <rc><c>Pt</c><c>   1</c></rc>
    <rc><c>Pt</c><c>   1</c></rc>
    <rc><c>Pt</c><c>   1</c></rc>
    <rc><c>Pt</c><c>   1</c></rc>
    <rc><c>Pt</c><c>   1</c></rc>
    <rc><c>Pt</c><c>   1</c></rc>
    <rc><c>Pt</c><c>   1</c></rc>
    <rc><c>Pt</c><c>   1</c></rc>
    <rc><c>Pt</c><c>   1</c></rc>
    <rc><c>Pt</c><c>   1</c></rc>
    <rc><c>Pt</c><c>   1</c></rc>
    <rc><c>Pt</c><c>   1</c></rc>
    <rc><c>Pt</c><c>   1</c></rc>
    <rc><c>Pt</c><c>   1</c></rc>
    <rc><c>Pt</c><c>   1</c></rc>
    <rc><c>Pt</c><c>   1</c></rc>
    <rc><c>Pt</c><c>   1</c></rc>
    <rc><c>Pt</c><c>   1</c></rc>
    <rc><c>Pt</c><c>   1</c></rc>
    <rc><c>Pt</c><c>   1</c></rc>
    <rc><c>Pt</c><c>   1</c></rc>
    <rc><c>Pt</c><c>   1</c></rc>
    <rc><c>Pt</c><c>   1</c></rc>
    <rc><c>Pt</c><c>   1</c></rc>
    <rc><c>Pt</c><c>   1</c></rc>
    <rc><c>Pt</c><c>   1</c></rc>
    <rc><c>Pt</c><c>   1</c></rc>
    <rc><c>Pt</c><c>   1</c></rc>
    <rc><c>Pt</c><c>   1</c></rc>
    <rc><c>Pt</c><c>   1</c></rc>
    <rc><c>Pt</c><c>   1</c></rc>
    <rc><c>Pt</c><c>   1</c></rc>
    <rc><c>Pt</c><c>   1</c></rc>
    <rc><c>Pt</c><c>   1</c></rc>
    <rc><c>Pt</c><c>   1</c></rc>
    <rc><c>C </c><c>   2</c></rc>
   </set>
  </array>
  <array name="atomtypes" >
   <dimension dim="1">type</dimension>
   <field type="int">atomspertype</field>
   <field type="string">element</field>
   <field>mass</field>
   <field>valence</field>
   <field type="string">pseudopotential</field>
   <set>
    <rc><c>  36</c><c>Pt</c><c>    195.08000000</c><c>     10.00000000</c><c>  PAW_PBE Pt 04Feb2005                  </c></rc>
    <rc><c>   1</c><c>C </c><c>     12.01100000</c><c>      4.00000000</c><c>  PAW_PBE C 08Apr2002                   </c></rc>
   </set>
  </array>
 </atominfo>
 <structure name="initialpos" >
  <crystal>
   <varray name="basis" >
    <v>       8.42164176       0.00000000       0.00000000 </v>
    <v>       4.21082088       7.29335571       0.00000000 </v>
    <v>       0.00000000       0.00000000      21.87624171 </v>
   </varray>
   <i name="volume">   1343.68315334 </i>
   <varray name="rec_basis" >
    <v>       0.11874169      -0.06855555       0.00000000 </v>
    <v>       0.00000000       0.13711110       0.00000000 </v>
    <v>       0.00000000       0.00000000       0.04571169 </v>
   </varray>
  </crystal>
  <varray name="positions" >
   <v>       0.00000000       0.00000000       0.34283768 </v>
   <v>       0.33333333       0.00000000       0.34283768 </v>
   <v>       0.66666667       0.00000000       0.34283768 </v>
   <v>       0.00000000       0.33333333       0.34283768 </v>
   <v>       0.33333333       0.33333333       0.34283768 </v>
   <v>       0.66666667       0.33333333       0.34283768 </v>
   <v>       0.00000000       0.66666667       0.34283768 </v>
   <v>       0.33333333       0.66666667       0.34283768 </v>
   <v>       0.66666667       0.66666667       0.34283768 </v>
   <v>       0.11111111       0.11111111       0.44761256 </v>
   <v>       0.44444444       0.11111111       0.44761256 </v>
   <v>       0.77777778       0.11111111       0.44761256 </v>
   <v>       0.11111111       0.44444444       0.44761256 </v>
   <v>       0.44444444       0.44444444       0.44761256 </v>
   <v>       0.77777778       0.44444444       0.44761256 </v>
   <v>       0.11111111       0.77777778       0.44761256 </v>
   <v>       0.44444444       0.77777778       0.44761256 </v>
   <v>       0.77777778       0.77777778       0.44761256 </v>
   <v>       0.88693345       0.22294440       0.55210425 </v>
   <v>       0.22317345       0.22295857       0.55213518 </v>
   <v>       0.55474406       0.22353143       0.55250140 </v>
   <v>       0.88897493       0.55506638       0.55083427 </v>
   <v>       0.22369626       0.55458064       0.55250635 </v>
   <v>       0.55470635       0.55460394       0.55247948 </v>
   <v>       0.88895682       0.88874008       0.55085864 </v>
   <v>       0.22310987       0.88682386       0.55210305 </v>
   <v>       0.55526413       0.88876244       0.55083623 </v>
   <v>       0.99932871       0.99900635       0.65653331 </v>
   <v>       0.33431374       0.99901037       0.65651988 </v>
   <v>       0.66877136       0.99515000       0.65583619 </v>
   <v>       0.99956608       0.33368021       0.65647233 </v>
   <v>       0.32406910       0.32365386       0.66261401 </v>
   <v>       0.68502710       0.32379095       0.66250248 </v>
   <v>       0.99555018       0.66834141       0.65582304 </v>
   <v>       0.32404795       0.68476795       0.66247766 </v>
   <v>       0.66891686       0.66844631       0.65581714 </v>
   <v>       0.44437422       0.44413056       0.69570069 </v>
  </varray>
  <varray name="selective"  type="logical" >
   <v type="logical" >  F  F  F </v>
   <v type="logical" >  F  F  F </v>
   <v type="logical" >  F  F  F </v>
   <v type="logical" >  F  F  F </v>
   <v type="logical" >  F  F  F </v>
   <v type="logical" >  F  F  F </v>
   <v type="logical" >  F  F  F </v>
   <v type="logical" >  F  F  F </v>
   <v type="logical" >  F  F  F </v>
   <v type="logical" >  F  F  F </v>
   <v type="logical" >  F  F  F </v>
   <v type="logical" >  F  F  F </v>
   <v type="logical" >  F  F  F </v>
   <v type="logical" >  F  F  F </v>
   <v type="logical" >  F  F  F </v>
   <v type="logical" >  F  F  F </v>
   <v type="logical" >  F  F  F </v>
   <v type="logical" >  F  F  F </v>
   <v type="logical" >  T  T  T </v>
   <v type="logical" >  T  T  T </v>
   <v type="logical" >  T  T  T </v>
   <v type="logical" >  T  T  T </v>
   <v type="logical" >  T  T  T </v>
   <v type="logical" >  T  T  T </v>
   <v type="logical" >  T  T  T </v>
   <v type="logical" >  T  T  T </v>
   <v type="logical" >  T  T  T </v>
   <v type="logical" >  T  T  T </v>
   <v type="logical" >  T  T  T </v>
   <v type="logical" >  T  T  T </v>
   <v type="logical" >  T  T  T </v>
   <v type="logical" >  T  T  T </v>
   <v type="logical" >  T  T  T </v>
   <v type="logical" >  T  T  T </v>
   <v type="logical" >  T  T  T </v>
   <v type="logical" >  T  T  T </v>
   <v type="logical" >  T  T  T </v>
  </varray>
  <nose>
   <v>      -3.00000000       0.00000000       0.00010000       0.00010000 </v>
  </nose>
 </structure>
 <calculation>
  <scstep>
   <time name="dav">  132.46  133.78</time>
   <time name="total">  133.44  134.75</time>
   <energy>
    <i name="alphaZ">    932.59998000 </i>
    <i name="ewald">  93377.61939795 </i>
    <i name="hartreedc">-121582.49226980 </i>
    <i name="XCdc">    134.40306013 </i>
    <i name="pawpsdc">  25168.96932179 </i>
    <i name="pawaedc"> -24151.34207152 </i>
    <i name="eentropy">     -0.56171220 </i>
    <i name="bandstr">   1917.21390590 </i>
    <i name="atom">  26395.15748898 </i>
    <i name="e_fr_energy">   2191.56710123 </i>
    <i name="e_wo_entrp">   2192.12881342 </i>
    <i name="e_0_energy">   2191.84795732 </i>
   </energy>
  </scstep>
  <scstep>
   <time name="dav">  171.19  174.45</time>
   <time name="total">  171.19  174.53</time>
   <energy>
    <i name="e_fr_energy">    -71.51808133 </i>
    <i name="e_wo_entrp">    -70.45115462 </i>
    <i name="e_0_energy">    -70.98461797 </i>
   </energy>
  </scstep>
  <scstep>
   <time name="dav">  183.56  185.47</time>
   <time name="total">  183.57  185.52</time>
   <energy>
    <i name="e_fr_energy">   -226.37212477 </i>
    <i name="e_wo_entrp">   -224.52553081 </i>
    <i name="e_0_energy">   -225.44882779 </i>
   </energy>
  </scstep>
  <scstep>
   <time name="dav">  178.41  179.53</time>
   <time name="total">  180.52  181.64</time>
   <energy>
    <i name="e_fr_energy">   -233.16446807 </i>
    <i name="e_wo_entrp">   -231.25882381 </i>
    <i name="e_0_energy">   -232.21164594 </i>
   </energy>
  </scstep>
  <scstep>
   <time name="diag">   12.44   12.46</time>
   <time name="diis">   46.93   47.02</time>
   <time name="orth">    3.90    3.93</time>
   <time name="total">   65.74   66.11</time>
   <energy>
    <i name="e_fr_energy">   -223.67053593 </i>
    <i name="e_wo_entrp">   -221.68076434 </i>
    <i name="e_0_energy">   -222.67565014 </i>
   </energy>
  </scstep>
  <scstep>
   <time name="diag">   12.80   12.84</time>
   <time name="diis">   46.82   47.09</time>
   <time name="orth">    3.64    3.70</time>
   <time name="total">   65.88   66.35</time>
   <energy>
    <i name="e_fr_energy">   -265.34146550 </i>
    <i name="e_wo_entrp">   -264.15010923 </i>
    <i name="e_0_energy">   -264.74578736 </i>
   </energy>
  </scstep>
  <scstep>
   <time name="diag">   13.45   13.45</time>
   <time name="diis">   46.29   46.64</time>
   <time name="orth">    3.66    3.69</time>
   <time name="total">   65.54   65.97</time>
   <energy>
    <i name="e_fr_energy">   -223.21633405 </i>
    <i name="e_wo_entrp">   -221.49895238 </i>
    <i name="e_0_energy">   -222.35764321 </i>
   </energy>
  </scstep>
  <scstep>
   <time name="diag">   13.18   13.21</time>
   <time name="diis">   51.55   51.82</time>
   <time name="orth">    3.89    3.89</time>
   <time name="total">   71.87   72.24</time>
   <energy>
    <i name="e_fr_energy">   -234.07777880 </i>
    <i name="e_wo_entrp">   -232.79815718 </i>
    <i name="e_0_energy">   -233.43796799 </i>
   </energy>
  </scstep>
  <scstep>
   <time name="diag">   14.97   15.18</time>
   <time name="diis">   51.35   51.70</time>
   <time name="orth">    3.62    3.63</time>
   <time name="total">   73.46   74.40</time>
   <energy>
    <i name="e_fr_energy">   -224.08127460 </i>
    <i name="e_wo_entrp">   -222.19454750 </i>
    <i name="e_0_energy">   -223.13791105 </i>
   </energy>
  </scstep>
  <scstep>
   <time name="diag">   15.19   15.20</time>
   <time name="diis">   46.18   46.59</time>
   <time name="orth">    3.77    3.80</time>
   <time name="total">   69.06   69.58</time>
   <energy>
    <i name="e_fr_energy">   -218.54277931 </i>
    <i name="e_wo_entrp">   -216.54923044 </i>
    <i name="e_0_energy">   -217.54600487 </i>
   </energy>
  </scstep>
  <scstep>
   <time name="diag">   12.77   12.77</time>
   <time name="diis">   46.10   46.14</time>
   <time name="orth">    3.64    3.68</time>
   <time name="total">   65.10   65.21</time>
   <energy>
    <i name="e_fr_energy">   -218.23657884 </i>
    <i name="e_wo_entrp">   -216.17927215 </i>
    <i name="e_0_energy">   -217.20792550 </i>
   </energy>
  </scstep>
  <scstep>
   <time name="diag">   12.68   12.68</time>
   <time name="diis">   45.84   45.95</time>
   <time name="orth">    3.53    3.55</time>
   <time name="total">   64.10   64.29</time>
   <energy>
    <i name="e_fr_energy">   -218.01455791 </i>
    <i name="e_wo_entrp">   -215.95511497 </i>
    <i name="e_0_energy">   -216.98483644 </i>
   </energy>
  </scstep>
  <scstep>
   <time name="diag">   13.00   13.00</time>
   <time name="diis">   45.86   46.04</time>
   <time name="orth">    3.57    3.62</time>
   <time name="total">   64.51   64.76</time>
   <energy>
    <i name="e_fr_energy">   -217.93081301 </i>
    <i name="e_wo_entrp">   -215.87658889 </i>
    <i name="e_0_energy">   -216.90370095 </i>
   </energy>
  </scstep>
  <scstep>
   <time name="diag">   12.96   13.10</time>
   <time name="diis">   48.88   49.35</time>
   <time name="orth">    3.67    3.69</time>
   <time name="total">   67.60   68.27</time>
   <energy>
    <i name="e_fr_energy">   -217.92591711 </i>
    <i name="e_wo_entrp">   -215.88112382 </i>
    <i name="e_0_energy">   -216.90352046 </i>
   </energy>
  </scstep>
  <scstep>
   <time name="diag">   13.13   13.14</time>
   <time name="diis">   44.84   45.20</time>
   <time name="orth">    3.58    3.62</time>
   <time name="total">   63.74   64.18</time>
   <energy>
    <i name="e_fr_energy">   -217.91038033 </i>
    <i name="e_wo_entrp">   -215.85853025 </i>
    <i name="e_0_energy">   -216.88445529 </i>
   </energy>
  </scstep>
  <scstep>
   <time name="diag">   18.61   18.75</time>
   <time name="diis">   47.55   48.10</time>
   <time name="orth">    3.74    3.75</time>
   <time name="total">   73.79   74.52</time>
   <energy>
    <i name="e_fr_energy">   -217.90483898 </i>
    <i name="e_wo_entrp">   -215.84812415 </i>
    <i name="e_0_energy">   -216.87648157 </i>
   </energy>
  </scstep>
  <scstep>
   <time name="diag">   12.88   12.89</time>
   <time name="diis">   47.85   48.00</time>
   <time name="orth">    3.83    3.83</time>
   <time name="total">   66.98   67.15</time>
   <energy>
    <i name="e_fr_energy">   -217.90377933 </i>
    <i name="e_wo_entrp">   -215.84653348 </i>
    <i name="e_0_energy">   -216.87515640 </i>
   </energy>
  </scstep>
  <scstep>
   <time name="diag">   17.41   17.42</time>
   <time name="diis">   46.17   46.53</time>
   <time name="orth">    3.70    3.85</time>
   <time name="total">   70.90   71.58</time>
   <energy>
    <i name="e_fr_energy">   -217.90350007 </i>
    <i name="e_wo_entrp">   -215.84701498 </i>
    <i name="e_0_energy">   -216.87525753 </i>
   </energy>
  </scstep>
  <scstep>
   <time name="diag">   13.02   13.03</time>
   <time name="diis">   47.75   48.18</time>
   <time name="orth">    3.56    3.64</time>
   <time name="total">   67.19   67.91</time>
   <energy>
    <i name="e_fr_energy">   -217.90325868 </i>
    <i name="e_wo_entrp">   -215.84676766 </i>
    <i name="e_0_energy">   -216.87501317 </i>
   </energy>
  </scstep>
  <scstep>
   <time name="diag">   13.01   13.11</time>
   <time name="diis">   46.48   46.92</time>
   <time name="orth">    3.58    3.69</time>
   <time name="total">   65.46   66.30</time>
   <energy>
    <i name="e_fr_energy">   -217.90319713 </i>
    <i name="e_wo_entrp">   -215.84717285 </i>
    <i name="e_0_energy">   -216.87518499 </i>
   </energy>
  </scstep>
  <scstep>
   <time name="diag">   12.95   12.94</time>
   <time name="diis">   45.29   45.53</time>
   <time name="orth">    3.67    3.67</time>
   <time name="total">   64.07   64.36</time>
   <energy>
    <i name="e_fr_energy">   -217.90318169 </i>
    <i name="e_wo_entrp">   -215.84715820 </i>
    <i name="e_0_energy">   -216.87516995 </i>
   </energy>
  </scstep>
  <scstep>
   <time name="diag">   13.03   13.14</time>
   <time name="diis">   47.88   48.09</time>
   <time name="orth">    3.62    3.64</time>
   <time name="total">   66.66   67.02</time>
   <energy>
    <i name="e_fr_energy">   -217.90321563 </i>
    <i name="e_wo_entrp">   -215.84710685 </i>
    <i name="e_0_energy">   -216.87516124 </i>
   </energy>
  </scstep>
  <scstep>
   <time name="diag">   12.90   13.10</time>
   <time name="diis">   44.02   44.42</time>
   <time name="orth">    3.83    3.85</time>
   <time name="total">   63.55   64.29</time>
   <energy>
    <i name="e_fr_energy">   -217.90323790 </i>
    <i name="e_wo_entrp">   -215.84708383 </i>
    <i name="e_0_energy">   -216.87516086 </i>
   </energy>
  </scstep>
  <scstep>
   <time name="diag">   12.84   12.88</time>
   <time name="diis">   47.08   48.02</time>
   <time name="orth">    3.86    3.88</time>
   <time name="total">   67.32   68.41</time>
   <energy>
    <i name="e_fr_energy">   -217.90330670 </i>
    <i name="e_wo_entrp">   -215.84705913 </i>
    <i name="e_0_energy">   -216.87518292 </i>
   </energy>
  </scstep>
  <scstep>
   <time name="diag">   13.11   13.11</time>
   <time name="diis">   35.74   36.21</time>
   <time name="orth">    3.50    3.50</time>
   <time name="total">   55.88   56.63</time>
   <energy>
    <i name="e_fr_energy">   -217.90334038 </i>
    <i name="e_wo_entrp">   -215.84709548 </i>
    <i name="e_0_energy">   -216.87521793 </i>
   </energy>
  </scstep>
  <scstep>
   <time name="diag">   12.75   12.79</time>
   <time name="diis">   38.00   38.27</time>
   <time name="orth">    3.49    3.66</time>
   <time name="total">   56.32   56.81</time>
   <energy>
    <i name="e_fr_energy">   -217.90339339 </i>
    <i name="e_wo_entrp">   -215.84727094 </i>
    <i name="e_0_energy">   -216.87533216 </i>
   </energy>
  </scstep>
  <scstep>
   <time name="diag">   13.18   13.18</time>
   <time name="diis">   33.53   33.99</time>
   <time name="orth">    4.49    4.62</time>
   <time name="total">   53.75   54.46</time>
   <energy>
    <i name="e_fr_energy">   -217.90343170 </i>
    <i name="e_wo_entrp">   -215.84730423 </i>
    <i name="e_0_energy">   -216.87536796 </i>
   </energy>
  </scstep>
  <scstep>
   <time name="diag">   13.21   13.35</time>
   <time name="diis">   33.01   33.39</time>
   <time name="orth">    3.90    3.90</time>
   <time name="total">   52.26   52.81</time>
   <energy>
    <i name="e_fr_energy">   -217.90346163 </i>
    <i name="e_wo_entrp">   -215.84732080 </i>
    <i name="e_0_energy">   -216.87539121 </i>
   </energy>
  </scstep>
  <scstep>
   <time name="diag">   13.62   13.67</time>
   <time name="diis">   30.09   30.16</time>
   <time name="orth">    3.77    3.79</time>
   <time name="total">   49.54   49.72</time>
   <energy>
    <i name="e_fr_energy">   -217.90348261 </i>
    <i name="e_wo_entrp">   -215.84732767 </i>
    <i name="e_0_energy">   -216.87540514 </i>
   </energy>
  </scstep>
  <scstep>
   <time name="diag">   13.69   13.70</time>
   <time name="diis">   31.17   31.38</time>
   <time name="orth">    3.82    3.82</time>
   <time name="total">   50.78   51.03</time>
   <energy>
    <i name="e_fr_energy">   -217.90350983 </i>
    <i name="e_wo_entrp">   -215.84733002 </i>
    <i name="e_0_energy">   -216.87541993 </i>
   </energy>
  </scstep>
  <scstep>
   <time name="diag">   13.45   13.46</time>
   <time name="diis">   27.17   27.26</time>
   <time name="orth">    3.84    3.87</time>
   <time name="total">   47.66   47.96</time>
   <energy>
    <i name="e_fr_energy">   -217.90353208 </i>
    <i name="e_wo_entrp">   -215.84735961 </i>
    <i name="e_0_energy">   -216.87544584 </i>
   </energy>
  </scstep>
  <scstep>
   <time name="diag">   13.34   13.39</time>
   <time name="diis">   24.94   25.23</time>
   <time name="orth">    3.71    3.74</time>
   <time name="total">   44.07   44.46</time>
   <energy>
    <i name="e_fr_energy">   -217.90354145 </i>
    <i name="e_wo_entrp">   -215.84737275 </i>
    <i name="e_0_energy">   -216.87545710 </i>
   </energy>
  </scstep>
  <scstep>
   <time name="diag">   20.77   20.84</time>
   <time name="diis">   26.64   26.77</time>
   <time name="orth">    4.03    4.13</time>
   <time name="total">   55.47   55.84</time>
   <energy>
    <i name="e_fr_energy">   -217.90355285 </i>
    <i name="e_wo_entrp">   -215.84738311 </i>
    <i name="e_0_energy">   -216.87546798 </i>
   </energy>
  </scstep>
  <scstep>
   <time name="diag">   13.65   13.73</time>
   <time name="diis">   23.96   24.04</time>
   <time name="orth">    3.98    3.99</time>
   <time name="total">   43.75   43.93</time>
   <energy>
    <i name="e_fr_energy">   -217.90355660 </i>
    <i name="e_wo_entrp">   -215.84738343 </i>
    <i name="e_0_energy">   -216.87547001 </i>
   </energy>
  </scstep>
  <scstep>
   <time name="diag">   13.00   13.00</time>
   <time name="diis">   23.82   24.10</time>
   <time name="orth">    3.74    3.85</time>
   <time name="total">   42.87   43.44</time>
   <energy>
    <i name="e_fr_energy">   -217.90355957 </i>
    <i name="e_wo_entrp">   -215.84738220 </i>
    <i name="e_0_energy">   -216.87547089 </i>
   </energy>
  </scstep>
  <scstep>
   <time name="diag">   12.71   12.93</time>
   <time name="diis">   22.67   22.98</time>
   <time name="orth">    3.80    3.83</time>
   <time name="total">   41.30   41.92</time>
   <energy>
    <i name="e_fr_energy">   -217.90356074 </i>
    <i name="e_wo_entrp">   -215.84738339 </i>
    <i name="e_0_energy">   -216.87547207 </i>
   </energy>
  </scstep>
  <scstep>
   <time name="diag">   13.39   13.41</time>
   <time name="diis">   20.16   20.56</time>
   <time name="orth">    3.83    3.85</time>
   <time name="total">   38.47   38.99</time>
   <energy>
    <i name="alphaZ">    932.59998000 </i>
    <i name="ewald">  93377.61939795 </i>
    <i name="hartreedc">-121222.16577167 </i>
    <i name="XCdc">    121.94768933 </i>
    <i name="pawpsdc">  32140.39672645 </i>
    <i name="pawaedc"> -31221.89643526 </i>
    <i name="eentropy">     -2.05617675 </i>
    <i name="bandstr">   -739.50646046 </i>
    <i name="atom">  26395.15748898 </i>
    <i name="e_fr_energy">   -217.90356144 </i>
    <i name="e_wo_entrp">   -215.84738469 </i>
    <i name="e_0_energy">   -216.87547306 </i>
   </energy>
  </scstep>
  <structure>
   <crystal>
    <varray name="basis" >
     <v>       8.42164176       0.00000000       0.00000000 </v>
     <v>       4.21082088       7.29335571       0.00000000 </v>
     <v>       0.00000000       0.00000000      21.87624171 </v>
    </varray>
    <i name="volume">   1343.68315334 </i>
    <varray name="rec_basis" >
     <v>       0.11874169      -0.06855555       0.00000000 </v>
     <v>       0.00000000       0.13711110       0.00000000 </v>
     <v>       0.00000000       0.00000000       0.04571169 </v>
    </varray>
   </crystal>
   <varray name="positions" >
    <v>       0.00000000       0.00000000       0.34283768 </v>
    <v>       0.33333333       0.00000000       0.34283768 </v>
    <v>       0.66666667       0.00000000       0.34283768 </v>
    <v>       0.00000000       0.33333333       0.34283768 </v>
    <v>       0.33333333       0.33333333       0.34283768 </v>
    <v>       0.66666667       0.33333333       0.34283768 </v>
    <v>       0.00000000       0.66666667       0.34283768 </v>
    <v>       0.33333333       0.66666667       0.34283768 </v>
    <v>       0.66666667       0.66666667       0.34283768 </v>
    <v>       0.11111111       0.11111111       0.44761256 </v>
    <v>       0.44444444       0.11111111       0.44761256 </v>
    <v>       0.77777778       0.11111111       0.44761256 </v>
    <v>       0.11111111       0.44444444       0.44761256 </v>
    <v>       0.44444444       0.44444444       0.44761256 </v>
    <v>       0.77777778       0.44444444       0.44761256 </v>
    <v>       0.11111111       0.77777778       0.44761256 </v>
    <v>       0.44444444       0.77777778       0.44761256 </v>
    <v>       0.77777778       0.77777778       0.44761256 </v>
    <v>       0.88693345       0.22294440       0.55210425 </v>
    <v>       0.22317345       0.22295857       0.55213518 </v>
    <v>       0.55474406       0.22353143       0.55250140 </v>
    <v>       0.88897493       0.55506638       0.55083427 </v>
    <v>       0.22369626       0.55458064       0.55250635 </v>
    <v>       0.55470635       0.55460394       0.55247948 </v>
    <v>       0.88895682       0.88874008       0.55085864 </v>
    <v>       0.22310987       0.88682386       0.55210305 </v>
    <v>       0.55526413       0.88876244       0.55083623 </v>
    <v>       0.99932871       0.99900635       0.65653331 </v>
    <v>       0.33431374       0.99901037       0.65651988 </v>
    <v>       0.66877136       0.99515000       0.65583619 </v>
    <v>       0.99956608       0.33368021       0.65647233 </v>
    <v>       0.32406910       0.32365386       0.66261401 </v>
    <v>       0.68502710       0.32379095       0.66250248 </v>
    <v>       0.99555018       0.66834141       0.65582304 </v>
    <v>       0.32404795       0.68476795       0.66247766 </v>
    <v>       0.66891686       0.66844631       0.65581714 </v>
    <v>       0.44437422       0.44413056       0.69570069 </v>
   </varray>
  </structure>
  <varray name="forces" >
   <v>       0.00430838       0.00282063      -0.05212227 </v>
   <v>      -0.00321220       0.00283169      -0.05202455 </v>
   <v>       0.00083697       0.00377109      -0.06683119 </v>
   <v>       0.00055197      -0.00378170      -0.05203197 </v>
   <v>      -0.00390672      -0.00183524      -0.05181651 </v>
   <v>       0.00538194      -0.00177729      -0.05228299 </v>
   <v>       0.00328097      -0.00050918      -0.06664634 </v>
   <v>       0.00076637       0.00613705      -0.05218762 </v>
   <v>      -0.00192348      -0.00075998      -0.06650118 </v>
   <v>      -0.00016935      -0.00032143      -0.04033811 </v>
   <v>      -0.04076436       0.03477208       0.06443875 </v>
   <v>       0.03777907       0.03316302       0.06419188 </v>
   <v>       0.01092833      -0.05405740       0.06378437 </v>
   <v>      -0.00251468      -0.00207597       0.24933056 </v>
   <v>      -0.01319513      -0.05386739       0.06123436 </v>
   <v>       0.04887459       0.01483419       0.06357503 </v>
   <v>      -0.05263346       0.01471150       0.06038105 </v>
   <v>      -0.00087161      -0.00136940      -0.01854704 </v>
   <v>       0.00004296      -0.00037057      -0.00443189 </v>
   <v>       0.00053011       0.00028562      -0.00555245 </v>
   <v>       0.00242863      -0.00084311      -0.00677303 </v>
   <v>      -0.00108437      -0.00107184      -0.00096549 </v>
   <v>      -0.00103469       0.00063303      -0.00807786 </v>
   <v>       0.00229234      -0.00064650      -0.00745975 </v>
   <v>      -0.00002500      -0.00015519      -0.00429588 </v>
   <v>      -0.00128560       0.00071494      -0.00383260 </v>
   <v>       0.00051313      -0.00066026      -0.00291472 </v>
   <v>       0.00174952       0.00250622      -0.00420609 </v>
   <v>      -0.00256877       0.00366413      -0.00279173 </v>
   <v>       0.00046858      -0.00081069      -0.00422651 </v>
   <v>       0.00028891      -0.00400698      -0.00237030 </v>
   <v>      -0.00376172      -0.00128639      -0.00319591 </v>
   <v>       0.00947152      -0.00358839      -0.00092657 </v>
   <v>      -0.00116126       0.00052190      -0.00312213 </v>
   <v>       0.00036367       0.01015702       0.00060368 </v>
   <v>       0.00035155       0.00106958      -0.00527098 </v>
   <v>      -0.00109711       0.00120120       0.01420397 </v>
  </varray>
  <varray name="stress" >
   <v>     -34.11538210       0.03119709       0.01410696 </v>
   <v>       0.03119711     -34.17431518       0.02828657 </v>
   <v>       0.01410694       0.02828662      -0.21834984 </v>
  </varray>
  <energy>
   <i name="e_fr_energy">   -217.90356144 </i>
   <i name="e_wo_entrp">   -216.87547306 </i>
   <i name="e_0_energy">     -2.05617675 </i>
  </energy>
  <time name="totalsc"> 2694.96 2719.37</time>
  <eigenvalues>
   <array>
    <dimension dim="1">band</dimension>
    <dimension dim="2">kpoint</dimension>
    <dimension dim="3">spin</dimension>
    <field>eigene</field>
    <field>occ</field>
    <set>
     <set comment="spin 1">
      <set comment="kpoint 1">
       <r>  -11.0666    1.0000 </r>
       <r>   -8.0172    1.0000 </r>
       <r>   -6.6748    1.0000 </r>
       <r>   -5.9449    1.0000 </r>
       <r>   -5.8960    1.0000 </r>
       <r>   -5.7002    1.0000 </r>
       <r>   -5.5936    1.0000 </r>
       <r>   -5.5733    1.0000 </r>
       <r>   -5.5665    1.0000 </r>
       <r>   -5.5108    1.0000 </r>
       <r>   -5.4462    1.0000 </r>
       <r>   -5.3766    1.0000 </r>
       <r>   -5.3668    1.0000 </r>
       <r>   -5.0315    1.0000 </r>
       <r>   -5.0017    1.0000 </r>
       <r>   -4.9970    1.0000 </r>
       <r>   -4.9440    1.0000 </r>
       <r>   -4.9044    1.0000 </r>
       <r>   -4.8925    1.0000 </r>
       <r>   -4.5518    1.0000 </r>
       <r>   -4.5329    1.0000 </r>
       <r>   -4.4965    1.0000 </r>
       <r>   -4.4879    1.0000 </r>
       <r>   -4.4045    1.0000 </r>
       <r>   -4.3590    1.0000 </r>
       <r>   -4.3126    1.0000 </r>
       <r>   -4.2679    1.0000 </r>
       <r>   -4.2641    1.0000 </r>
       <r>   -4.1971    1.0000 </r>
       <r>   -4.1904    1.0000 </r>
       <r>   -4.1710    1.0000 </r>
       <r>   -4.1312    1.0000 </r>
       <r>   -4.0982    1.0000 </r>
       <r>   -4.0750    1.0000 </r>
       <r>   -4.0747    1.0000 </r>
       <r>   -4.0552    1.0000 </r>
       <r>   -4.0310    1.0000 </r>
       <r>   -3.9935    1.0000 </r>
       <r>   -3.9595    1.0000 </r>
       <r>   -3.8604    1.0000 </r>
       <r>   -3.8445    1.0000 </r>
       <r>   -3.5928    1.0000 </r>
       <r>   -3.5536    1.0000 </r>
       <r>   -3.5455    1.0000 </r>
       <r>   -3.4789    1.0000 </r>
       <r>   -3.4350    1.0000 </r>
       <r>   -3.4103    1.0000 </r>
       <r>   -3.3980    1.0000 </r>
       <r>   -3.3908    1.0000 </r>
       <r>   -3.3038    1.0000 </r>
       <r>   -3.2758    1.0000 </r>
       <r>   -3.1760    1.0000 </r>
       <r>   -3.1491    1.0000 </r>
       <r>   -3.1268    1.0000 </r>
       <r>   -3.1258    1.0000 </r>
       <r>   -3.0534    1.0000 </r>
       <r>   -3.0522    1.0000 </r>
       <r>   -2.8713    1.0000 </r>
       <r>   -2.6582    1.0000 </r>
       <r>   -2.6489    1.0000 </r>
       <r>   -2.5588    1.0000 </r>
       <r>   -2.5581    1.0000 </r>
       <r>   -2.5492    1.0000 </r>
       <r>   -2.5336    1.0000 </r>
       <r>   -2.4792    1.0000 </r>
       <r>   -2.4731    1.0000 </r>
       <r>   -2.4412    1.0000 </r>
       <r>   -2.4267    1.0000 </r>
       <r>   -2.4029    1.0000 </r>
       <r>   -2.3817    1.0000 </r>
       <r>   -2.3359    1.0000 </r>
       <r>   -2.3332    1.0000 </r>
       <r>   -2.2992    1.0000 </r>
       <r>   -2.2930    1.0000 </r>
       <r>   -2.2624    1.0000 </r>
       <r>   -2.2273    1.0000 </r>
       <r>   -2.2024    1.0000 </r>
       <r>   -2.1663    1.0000 </r>
       <r>   -2.1641    1.0000 </r>
       <r>   -2.1402    1.0000 </r>
       <r>   -2.1264    1.0000 </r>
       <r>   -2.0892    1.0000 </r>
       <r>   -2.0694    1.0000 </r>
       <r>   -2.0485    1.0000 </r>
       <r>   -2.0311    1.0000 </r>
       <r>   -1.9450    1.0000 </r>
       <r>   -1.9325    1.0000 </r>
       <r>   -1.9014    1.0000 </r>
       <r>   -1.8857    1.0000 </r>
       <r>   -1.8815    1.0000 </r>
       <r>   -1.8536    1.0000 </r>
       <r>   -1.8285    1.0000 </r>
       <r>   -1.8130    1.0000 </r>
       <r>   -1.7807    1.0000 </r>
       <r>   -1.7637    1.0000 </r>
       <r>   -1.7608    1.0000 </r>
       <r>   -1.7255    1.0000 </r>
       <r>   -1.6835    1.0000 </r>
       <r>   -1.6819    1.0000 </r>
       <r>   -1.6560    1.0000 </r>
       <r>   -1.5816    1.0000 </r>
       <r>   -1.5611    1.0000 </r>
       <r>   -1.5323    1.0000 </r>
       <r>   -1.5203    1.0000 </r>
       <r>   -1.5132    1.0000 </r>
       <r>   -1.5056    1.0000 </r>
       <r>   -1.5025    1.0000 </r>
       <r>   -1.4416    1.0000 </r>
       <r>   -1.4082    1.0000 </r>
       <r>   -1.3517    1.0000 </r>
       <r>   -1.1823    1.0000 </r>
       <r>   -1.1806    1.0000 </r>
       <r>   -1.1361    1.0000 </r>
       <r>   -1.0376    1.0000 </r>
       <r>   -1.0338    1.0000 </r>
       <r>   -0.9619    1.0000 </r>
       <r>   -0.9618    1.0000 </r>
       <r>   -0.9287    1.0000 </r>
       <r>   -0.8881    1.0000 </r>
       <r>   -0.8824    1.0000 </r>
       <r>   -0.8574    1.0000 </r>
       <r>   -0.8044    1.0000 </r>
       <r>   -0.7712    1.0000 </r>
       <r>   -0.7701    1.0000 </r>
       <r>   -0.6516    1.0000 </r>
       <r>   -0.6129    1.0000 </r>
       <r>   -0.5840    1.0000 </r>
       <r>   -0.5761    1.0000 </r>
       <r>   -0.4293    1.0000 </r>
       <r>   -0.4193    1.0000 </r>
       <r>   -0.3601    1.0000 </r>
       <r>   -0.3531    1.0000 </r>
       <r>   -0.3305    1.0000 </r>
       <r>   -0.3268    1.0000 </r>
       <r>   -0.3069    1.0000 </r>
       <r>   -0.3054    1.0000 </r>
       <r>   -0.2894    1.0000 </r>
       <r>   -0.2206    1.0000 </r>
       <r>   -0.1903    1.0000 </r>
       <r>   -0.1754    1.0000 </r>
       <r>   -0.1178    1.0000 </r>
       <r>   -0.0729    1.0000 </r>
       <r>   -0.0489    1.0000 </r>
       <r>   -0.0351    1.0000 </r>
       <r>   -0.0031    1.0000 </r>
       <r>    0.0054    1.0000 </r>
       <r>    0.0251    1.0000 </r>
       <r>    0.0695    1.0000 </r>
       <r>    0.1347    1.0000 </r>
       <r>    0.1763    1.0000 </r>
       <r>    0.1906    0.9999 </r>
       <r>    0.2105    0.9999 </r>
       <r>    0.2396    0.9999 </r>
       <r>    0.2869    0.9999 </r>
       <r>    0.3353    0.9998 </r>
       <r>    0.3414    0.9998 </r>
       <r>    0.3456    0.9997 </r>
       <r>    0.3682    0.9997 </r>
       <r>    0.3879    0.9996 </r>
       <r>    0.4193    0.9995 </r>
       <r>    0.4703    0.9991 </r>
       <r>    0.4817    0.9990 </r>
       <r>    0.4905    0.9989 </r>
       <r>    0.5398    0.9982 </r>
       <r>    0.5585    0.9978 </r>
       <r>    0.5822    0.9973 </r>
       <r>    0.5878    0.9971 </r>
       <r>    0.6039    0.9966 </r>
       <r>    0.6108    0.9964 </r>
       <r>    0.6357    0.9953 </r>
       <r>    0.6457    0.9948 </r>
       <r>    0.6487    0.9947 </r>
       <r>    0.6955    0.9915 </r>
       <r>    0.7237    0.9888 </r>
       <r>    0.7366    0.9873 </r>
       <r>    0.7436    0.9864 </r>
       <r>    0.7863    0.9793 </r>
       <r>    0.8079    0.9744 </r>
       <r>    0.8351    0.9667 </r>
       <r>    0.8620    0.9569 </r>
       <r>    0.8701    0.9534 </r>
       <r>    0.8860    0.9458 </r>
       <r>    0.9169    0.9277 </r>
       <r>    0.9333    0.9158 </r>
       <r>    0.9529    0.8994 </r>
       <r>    0.9610    0.8918 </r>
       <r>    0.9672    0.8857 </r>
       <r>    0.9896    0.8610 </r>
       <r>    0.9901    0.8605 </r>
       <r>    1.0903    0.6936 </r>
       <r>    1.1807    0.4781 </r>
       <r>    1.1892    0.4571 </r>
       <r>    1.2174    0.3884 </r>
       <r>    1.2414    0.3330 </r>
       <r>    1.2480    0.3185 </r>
       <r>    1.2811    0.2514 </r>
       <r>    1.5118    0.0324 </r>
       <r>    1.7421    0.0033 </r>
       <r>    1.8104    0.0017 </r>
       <r>    1.9294    0.0005 </r>
       <r>    2.0382    0.0002 </r>
       <r>    2.1289    0.0001 </r>
       <r>    2.2743    0.0000 </r>
       <r>    3.0227    0.0000 </r>
       <r>    3.3184    0.0000 </r>
       <r>    3.3628    0.0000 </r>
       <r>    4.1907    0.0000 </r>
       <r>    4.2695    0.0000 </r>
       <r>    4.3740    0.0000 </r>
       <r>    4.6653    0.0000 </r>
       <r>    4.7872    0.0000 </r>
       <r>    4.7931    0.0000 </r>
       <r>    5.5355    0.0000 </r>
       <r>    5.6431    0.0000 </r>
       <r>    5.9803    0.0000 </r>
       <r>    6.1097    0.0000 </r>
       <r>    6.3753    0.0000 </r>
       <r>    6.5289    0.0000 </r>
       <r>    6.6311    0.0000 </r>
       <r>    6.6718    0.0000 </r>
      </set>
      <set comment="kpoint 2">
       <r>  -11.0666    1.0000 </r>
       <r>   -8.0172    1.0000 </r>
       <r>   -6.6748    1.0000 </r>
       <r>   -5.9459    1.0000 </r>
       <r>   -5.8951    1.0000 </r>
       <r>   -5.7005    1.0000 </r>
       <r>   -5.5937    1.0000 </r>
       <r>   -5.5732    1.0000 </r>
       <r>   -5.5658    1.0000 </r>
       <r>   -5.5105    1.0000 </r>
       <r>   -5.4465    1.0000 </r>
       <r>   -5.3766    1.0000 </r>
       <r>   -5.3670    1.0000 </r>
       <r>   -5.0306    1.0000 </r>
       <r>   -5.0021    1.0000 </r>
       <r>   -4.9976    1.0000 </r>
       <r>   -4.9440    1.0000 </r>
       <r>   -4.9043    1.0000 </r>
       <r>   -4.8925    1.0000 </r>
       <r>   -4.5521    1.0000 </r>
       <r>   -4.5325    1.0000 </r>
       <r>   -4.4965    1.0000 </r>
       <r>   -4.4877    1.0000 </r>
       <r>   -4.4047    1.0000 </r>
       <r>   -4.3590    1.0000 </r>
       <r>   -4.3124    1.0000 </r>
       <r>   -4.2679    1.0000 </r>
       <r>   -4.2641    1.0000 </r>
       <r>   -4.1975    1.0000 </r>
       <r>   -4.1902    1.0000 </r>
       <r>   -4.1711    1.0000 </r>
       <r>   -4.1318    1.0000 </r>
       <r>   -4.0988    1.0000 </r>
       <r>   -4.0747    1.0000 </r>
       <r>   -4.0745    1.0000 </r>
       <r>   -4.0542    1.0000 </r>
       <r>   -4.0304    1.0000 </r>
       <r>   -3.9937    1.0000 </r>
       <r>   -3.9599    1.0000 </r>
       <r>   -3.8608    1.0000 </r>
       <r>   -3.8444    1.0000 </r>
       <r>   -3.5929    1.0000 </r>
       <r>   -3.5535    1.0000 </r>
       <r>   -3.5456    1.0000 </r>
       <r>   -3.4785    1.0000 </r>
       <r>   -3.4351    1.0000 </r>
       <r>   -3.4103    1.0000 </r>
       <r>   -3.3978    1.0000 </r>
       <r>   -3.3910    1.0000 </r>
       <r>   -3.3035    1.0000 </r>
       <r>   -3.2755    1.0000 </r>
       <r>   -3.1761    1.0000 </r>
       <r>   -3.1493    1.0000 </r>
       <r>   -3.1271    1.0000 </r>
       <r>   -3.1256    1.0000 </r>
       <r>   -3.0532    1.0000 </r>
       <r>   -3.0525    1.0000 </r>
       <r>   -2.8712    1.0000 </r>
       <r>   -2.6588    1.0000 </r>
       <r>   -2.6479    1.0000 </r>
       <r>   -2.5589    1.0000 </r>
       <r>   -2.5574    1.0000 </r>
       <r>   -2.5498    1.0000 </r>
       <r>   -2.5327    1.0000 </r>
       <r>   -2.4795    1.0000 </r>
       <r>   -2.4725    1.0000 </r>
       <r>   -2.4416    1.0000 </r>
       <r>   -2.4270    1.0000 </r>
       <r>   -2.4030    1.0000 </r>
       <r>   -2.3814    1.0000 </r>
       <r>   -2.3358    1.0000 </r>
       <r>   -2.3331    1.0000 </r>
       <r>   -2.2990    1.0000 </r>
       <r>   -2.2931    1.0000 </r>
       <r>   -2.2624    1.0000 </r>
       <r>   -2.2276    1.0000 </r>
       <r>   -2.2011    1.0000 </r>
       <r>   -2.1673    1.0000 </r>
       <r>   -2.1635    1.0000 </r>
       <r>   -2.1425    1.0000 </r>
       <r>   -2.1267    1.0000 </r>
       <r>   -2.0899    1.0000 </r>
       <r>   -2.0692    1.0000 </r>
       <r>   -2.0473    1.0000 </r>
       <r>   -2.0302    1.0000 </r>
       <r>   -1.9451    1.0000 </r>
       <r>   -1.9329    1.0000 </r>
       <r>   -1.9009    1.0000 </r>
       <r>   -1.8858    1.0000 </r>
       <r>   -1.8836    1.0000 </r>
       <r>   -1.8529    1.0000 </r>
       <r>   -1.8274    1.0000 </r>
       <r>   -1.8124    1.0000 </r>
       <r>   -1.7801    1.0000 </r>
       <r>   -1.7652    1.0000 </r>
       <r>   -1.7608    1.0000 </r>
       <r>   -1.7259    1.0000 </r>
       <r>   -1.6834    1.0000 </r>
       <r>   -1.6820    1.0000 </r>
       <r>   -1.6553    1.0000 </r>
       <r>   -1.5831    1.0000 </r>
       <r>   -1.5595    1.0000 </r>
       <r>   -1.5318    1.0000 </r>
       <r>   -1.5208    1.0000 </r>
       <r>   -1.5135    1.0000 </r>
       <r>   -1.5056    1.0000 </r>
       <r>   -1.5028    1.0000 </r>
       <r>   -1.4425    1.0000 </r>
       <r>   -1.4082    1.0000 </r>
       <r>   -1.3516    1.0000 </r>
       <r>   -1.1823    1.0000 </r>
       <r>   -1.1795    1.0000 </r>
       <r>   -1.1357    1.0000 </r>
       <r>   -1.0376    1.0000 </r>
       <r>   -1.0339    1.0000 </r>
       <r>   -0.9627    1.0000 </r>
       <r>   -0.9618    1.0000 </r>
       <r>   -0.9291    1.0000 </r>
       <r>   -0.8879    1.0000 </r>
       <r>   -0.8826    1.0000 </r>
       <r>   -0.8576    1.0000 </r>
       <r>   -0.8041    1.0000 </r>
       <r>   -0.7712    1.0000 </r>
       <r>   -0.7702    1.0000 </r>
       <r>   -0.6518    1.0000 </r>
       <r>   -0.6129    1.0000 </r>
       <r>   -0.5840    1.0000 </r>
       <r>   -0.5765    1.0000 </r>
       <r>   -0.4291    1.0000 </r>
       <r>   -0.4190    1.0000 </r>
       <r>   -0.3582    1.0000 </r>
       <r>   -0.3548    1.0000 </r>
       <r>   -0.3303    1.0000 </r>
       <r>   -0.3270    1.0000 </r>
       <r>   -0.3071    1.0000 </r>
       <r>   -0.3061    1.0000 </r>
       <r>   -0.2896    1.0000 </r>
       <r>   -0.2204    1.0000 </r>
       <r>   -0.1904    1.0000 </r>
       <r>   -0.1756    1.0000 </r>
       <r>   -0.1178    1.0000 </r>
       <r>   -0.0732    1.0000 </r>
       <r>   -0.0487    1.0000 </r>
       <r>   -0.0350    1.0000 </r>
       <r>   -0.0027    1.0000 </r>
       <r>    0.0051    1.0000 </r>
       <r>    0.0253    1.0000 </r>
       <r>    0.0699    1.0000 </r>
       <r>    0.1345    1.0000 </r>
       <r>    0.1765    1.0000 </r>
       <r>    0.1913    0.9999 </r>
       <r>    0.2107    0.9999 </r>
       <r>    0.2395    0.9999 </r>
       <r>    0.2874    0.9999 </r>
       <r>    0.3352    0.9998 </r>
       <r>    0.3414    0.9998 </r>
       <r>    0.3456    0.9997 </r>
       <r>    0.3679    0.9997 </r>
       <r>    0.3876    0.9996 </r>
       <r>    0.4193    0.9995 </r>
       <r>    0.4703    0.9991 </r>
       <r>    0.4817    0.9990 </r>
       <r>    0.4900    0.9989 </r>
       <r>    0.5397    0.9982 </r>
       <r>    0.5586    0.9978 </r>
       <r>    0.5820    0.9973 </r>
       <r>    0.5876    0.9971 </r>
       <r>    0.6045    0.9966 </r>
       <r>    0.6112    0.9963 </r>
       <r>    0.6357    0.9953 </r>
       <r>    0.6463    0.9948 </r>
       <r>    0.6489    0.9947 </r>
       <r>    0.6949    0.9916 </r>
       <r>    0.7237    0.9888 </r>
       <r>    0.7367    0.9873 </r>
       <r>    0.7440    0.9863 </r>
       <r>    0.7857    0.9794 </r>
       <r>    0.8086    0.9743 </r>
       <r>    0.8352    0.9667 </r>
       <r>    0.8617    0.9570 </r>
       <r>    0.8694    0.9537 </r>
       <r>    0.8852    0.9462 </r>
       <r>    0.9171    0.9275 </r>
       <r>    0.9325    0.9164 </r>
       <r>    0.9528    0.8995 </r>
       <r>    0.9599    0.8929 </r>
       <r>    0.9673    0.8856 </r>
       <r>    0.9898    0.8608 </r>
       <r>    0.9906    0.8598 </r>
       <r>    1.0918    0.6904 </r>
       <r>    1.1800    0.4799 </r>
       <r>    1.1890    0.4574 </r>
       <r>    1.2182    0.3864 </r>
       <r>    1.2415    0.3328 </r>
       <r>    1.2481    0.3183 </r>
       <r>    1.2816    0.2504 </r>
       <r>    1.5114    0.0325 </r>
       <r>    1.7411    0.0034 </r>
       <r>    1.8116    0.0017 </r>
       <r>    1.9302    0.0005 </r>
       <r>    2.0377    0.0002 </r>
       <r>    2.1292    0.0001 </r>
       <r>    2.2735    0.0000 </r>
       <r>    3.0229    0.0000 </r>
       <r>    3.3185    0.0000 </r>
       <r>    3.3627    0.0000 </r>
       <r>    4.1900    0.0000 </r>
       <r>    4.2692    0.0000 </r>
       <r>    4.3754    0.0000 </r>
       <r>    4.6658    0.0000 </r>
       <r>    4.7881    0.0000 </r>
       <r>    4.7914    0.0000 </r>
       <r>    5.5350    0.0000 </r>
       <r>    5.6428    0.0000 </r>
       <r>    5.9814    0.0000 </r>
       <r>    6.1103    0.0000 </r>
       <r>    6.3668    0.0000 </r>
       <r>    6.5323    0.0000 </r>
       <r>    6.6549    0.0000 </r>
       <r>    6.7366    0.0000 </r>
      </set>
      <set comment="kpoint 3">
       <r>  -11.0666    1.0000 </r>
       <r>   -8.0172    1.0000 </r>
       <r>   -6.6748    1.0000 </r>
       <r>   -5.9454    1.0000 </r>
       <r>   -5.8956    1.0000 </r>
       <r>   -5.7005    1.0000 </r>
       <r>   -5.5936    1.0000 </r>
       <r>   -5.5733    1.0000 </r>
       <r>   -5.5659    1.0000 </r>
       <r>   -5.5107    1.0000 </r>
       <r>   -5.4464    1.0000 </r>
       <r>   -5.3767    1.0000 </r>
       <r>   -5.3668    1.0000 </r>
       <r>   -5.0309    1.0000 </r>
       <r>   -5.0021    1.0000 </r>
       <r>   -4.9972    1.0000 </r>
       <r>   -4.9440    1.0000 </r>
       <r>   -4.9043    1.0000 </r>
       <r>   -4.8926    1.0000 </r>
       <r>   -4.5521    1.0000 </r>
       <r>   -4.5325    1.0000 </r>
       <r>   -4.4965    1.0000 </r>
       <r>   -4.4878    1.0000 </r>
       <r>   -4.4047    1.0000 </r>
       <r>   -4.3589    1.0000 </r>
       <r>   -4.3125    1.0000 </r>
       <r>   -4.2678    1.0000 </r>
       <r>   -4.2641    1.0000 </r>
       <r>   -4.1974    1.0000 </r>
       <r>   -4.1902    1.0000 </r>
       <r>   -4.1711    1.0000 </r>
       <r>   -4.1316    1.0000 </r>
       <r>   -4.0985    1.0000 </r>
       <r>   -4.0748    1.0000 </r>
       <r>   -4.0745    1.0000 </r>
       <r>   -4.0547    1.0000 </r>
       <r>   -4.0307    1.0000 </r>
       <r>   -3.9936    1.0000 </r>
       <r>   -3.9599    1.0000 </r>
       <r>   -3.8605    1.0000 </r>
       <r>   -3.8444    1.0000 </r>
       <r>   -3.5929    1.0000 </r>
       <r>   -3.5535    1.0000 </r>
       <r>   -3.5455    1.0000 </r>
       <r>   -3.4787    1.0000 </r>
       <r>   -3.4350    1.0000 </r>
       <r>   -3.4103    1.0000 </r>
       <r>   -3.3979    1.0000 </r>
       <r>   -3.3909    1.0000 </r>
       <r>   -3.3037    1.0000 </r>
       <r>   -3.2756    1.0000 </r>
       <r>   -3.1759    1.0000 </r>
       <r>   -3.1493    1.0000 </r>
       <r>   -3.1269    1.0000 </r>
       <r>   -3.1258    1.0000 </r>
       <r>   -3.0533    1.0000 </r>
       <r>   -3.0524    1.0000 </r>
       <r>   -2.8713    1.0000 </r>
       <r>   -2.6585    1.0000 </r>
       <r>   -2.6483    1.0000 </r>
       <r>   -2.5589    1.0000 </r>
       <r>   -2.5577    1.0000 </r>
       <r>   -2.5496    1.0000 </r>
       <r>   -2.5330    1.0000 </r>
       <r>   -2.4794    1.0000 </r>
       <r>   -2.4728    1.0000 </r>
       <r>   -2.4416    1.0000 </r>
       <r>   -2.4267    1.0000 </r>
       <r>   -2.4030    1.0000 </r>
       <r>   -2.3816    1.0000 </r>
       <r>   -2.3360    1.0000 </r>
       <r>   -2.3331    1.0000 </r>
       <r>   -2.2990    1.0000 </r>
       <r>   -2.2931    1.0000 </r>
       <r>   -2.2624    1.0000 </r>
       <r>   -2.2274    1.0000 </r>
       <r>   -2.2017    1.0000 </r>
       <r>   -2.1670    1.0000 </r>
       <r>   -2.1637    1.0000 </r>
       <r>   -2.1415    1.0000 </r>
       <r>   -2.1267    1.0000 </r>
       <r>   -2.0896    1.0000 </r>
       <r>   -2.0691    1.0000 </r>
       <r>   -2.0478    1.0000 </r>
       <r>   -2.0306    1.0000 </r>
       <r>   -1.9449    1.0000 </r>
       <r>   -1.9328    1.0000 </r>
       <r>   -1.9010    1.0000 </r>
       <r>   -1.8858    1.0000 </r>
       <r>   -1.8828    1.0000 </r>
       <r>   -1.8532    1.0000 </r>
       <r>   -1.8280    1.0000 </r>
       <r>   -1.8126    1.0000 </r>
       <r>   -1.7803    1.0000 </r>
       <r>   -1.7646    1.0000 </r>
       <r>   -1.7607    1.0000 </r>
       <r>   -1.7258    1.0000 </r>
       <r>   -1.6834    1.0000 </r>
       <r>   -1.6820    1.0000 </r>
       <r>   -1.6558    1.0000 </r>
       <r>   -1.5822    1.0000 </r>
       <r>   -1.5602    1.0000 </r>
       <r>   -1.5321    1.0000 </r>
       <r>   -1.5205    1.0000 </r>
       <r>   -1.5134    1.0000 </r>
       <r>   -1.5056    1.0000 </r>
       <r>   -1.5026    1.0000 </r>
       <r>   -1.4420    1.0000 </r>
       <r>   -1.4083    1.0000 </r>
       <r>   -1.3518    1.0000 </r>
       <r>   -1.1825    1.0000 </r>
       <r>   -1.1798    1.0000 </r>
       <r>   -1.1359    1.0000 </r>
       <r>   -1.0376    1.0000 </r>
       <r>   -1.0339    1.0000 </r>
       <r>   -0.9626    1.0000 </r>
       <r>   -0.9616    1.0000 </r>
       <r>   -0.9287    1.0000 </r>
       <r>   -0.8878    1.0000 </r>
       <r>   -0.8826    1.0000 </r>
       <r>   -0.8576    1.0000 </r>
       <r>   -0.8044    1.0000 </r>
       <r>   -0.7714    1.0000 </r>
       <r>   -0.7698    1.0000 </r>
       <r>   -0.6518    1.0000 </r>
       <r>   -0.6129    1.0000 </r>
       <r>   -0.5840    1.0000 </r>
       <r>   -0.5764    1.0000 </r>
       <r>   -0.4292    1.0000 </r>
       <r>   -0.4191    1.0000 </r>
       <r>   -0.3591    1.0000 </r>
       <r>   -0.3539    1.0000 </r>
       <r>   -0.3304    1.0000 </r>
       <r>   -0.3269    1.0000 </r>
       <r>   -0.3069    1.0000 </r>
       <r>   -0.3058    1.0000 </r>
       <r>   -0.2895    1.0000 </r>
       <r>   -0.2206    1.0000 </r>
       <r>   -0.1903    1.0000 </r>
       <r>   -0.1756    1.0000 </r>
       <r>   -0.1179    1.0000 </r>
       <r>   -0.0729    1.0000 </r>
       <r>   -0.0488    1.0000 </r>
       <r>   -0.0350    1.0000 </r>
       <r>   -0.0030    1.0000 </r>
       <r>    0.0054    1.0000 </r>
       <r>    0.0251    1.0000 </r>
       <r>    0.0698    1.0000 </r>
       <r>    0.1348    1.0000 </r>
       <r>    0.1762    1.0000 </r>
       <r>    0.1911    0.9999 </r>
       <r>    0.2106    0.9999 </r>
       <r>    0.2397    0.9999 </r>
       <r>    0.2871    0.9999 </r>
       <r>    0.3353    0.9998 </r>
       <r>    0.3415    0.9998 </r>
       <r>    0.3456    0.9997 </r>
       <r>    0.3681    0.9997 </r>
       <r>    0.3876    0.9996 </r>
       <r>    0.4193    0.9995 </r>
       <r>    0.4703    0.9991 </r>
       <r>    0.4816    0.9990 </r>
       <r>    0.4902    0.9989 </r>
       <r>    0.5397    0.9982 </r>
       <r>    0.5585    0.9978 </r>
       <r>    0.5820    0.9973 </r>
       <r>    0.5879    0.9971 </r>
       <r>    0.6041    0.9966 </r>
       <r>    0.6109    0.9964 </r>
       <r>    0.6357    0.9953 </r>
       <r>    0.6460    0.9948 </r>
       <r>    0.6489    0.9947 </r>
       <r>    0.6952    0.9916 </r>
       <r>    0.7237    0.9888 </r>
       <r>    0.7367    0.9873 </r>
       <r>    0.7438    0.9864 </r>
       <r>    0.7860    0.9794 </r>
       <r>    0.8082    0.9744 </r>
       <r>    0.8352    0.9667 </r>
       <r>    0.8619    0.9569 </r>
       <r>    0.8697    0.9536 </r>
       <r>    0.8855    0.9461 </r>
       <r>    0.9170    0.9275 </r>
       <r>    0.9328    0.9162 </r>
       <r>    0.9529    0.8994 </r>
       <r>    0.9604    0.8925 </r>
       <r>    0.9674    0.8855 </r>
       <r>    0.9896    0.8610 </r>
       <r>    0.9905    0.8599 </r>
       <r>    1.0912    0.6916 </r>
       <r>    1.1803    0.4792 </r>
       <r>    1.1891    0.4572 </r>
       <r>    1.2179    0.3872 </r>
       <r>    1.2414    0.3330 </r>
       <r>    1.2481    0.3184 </r>
       <r>    1.2814    0.2507 </r>
       <r>    1.5116    0.0324 </r>
       <r>    1.7415    0.0034 </r>
       <r>    1.8111    0.0017 </r>
       <r>    1.9298    0.0005 </r>
       <r>    2.0380    0.0002 </r>
       <r>    2.1293    0.0001 </r>
       <r>    2.2737    0.0000 </r>
       <r>    3.0229    0.0000 </r>
       <r>    3.3183    0.0000 </r>
       <r>    3.3628    0.0000 </r>
       <r>    4.1902    0.0000 </r>
       <r>    4.2692    0.0000 </r>
       <r>    4.3751    0.0000 </r>
       <r>    4.6657    0.0000 </r>
       <r>    4.7874    0.0000 </r>
       <r>    4.7923    0.0000 </r>
       <r>    5.5352    0.0000 </r>
       <r>    5.6429    0.0000 </r>
       <r>    5.9810    0.0000 </r>
       <r>    6.1100    0.0000 </r>
       <r>    6.3633    0.0000 </r>
       <r>    6.4140    0.0000 </r>
       <r>    6.5491    0.0000 </r>
       <r>    6.6904    0.0000 </r>
      </set>
      <set comment="kpoint 4">
       <r>  -11.0554    1.0000 </r>
       <r>   -7.8675    1.0000 </r>
       <r>   -6.5547    1.0000 </r>
       <r>   -6.1926    1.0000 </r>
       <r>   -6.0134    1.0000 </r>
       <r>   -5.7496    1.0000 </r>
       <r>   -5.6601    1.0000 </r>
       <r>   -5.4467    1.0000 </r>
       <r>   -5.4306    1.0000 </r>
       <r>   -5.3594    1.0000 </r>
       <r>   -5.3367    1.0000 </r>
       <r>   -5.2684    1.0000 </r>
       <r>   -5.2397    1.0000 </r>
       <r>   -5.0951    1.0000 </r>
       <r>   -5.0108    1.0000 </r>
       <r>   -4.9879    1.0000 </r>
       <r>   -4.9084    1.0000 </r>
       <r>   -4.8525    1.0000 </r>
       <r>   -4.7784    1.0000 </r>
       <r>   -4.5856    1.0000 </r>
       <r>   -4.5299    1.0000 </r>
       <r>   -4.4893    1.0000 </r>
       <r>   -4.4369    1.0000 </r>
       <r>   -4.4015    1.0000 </r>
       <r>   -4.3797    1.0000 </r>
       <r>   -4.3304    1.0000 </r>
       <r>   -4.2979    1.0000 </r>
       <r>   -4.2620    1.0000 </r>
       <r>   -4.2477    1.0000 </r>
       <r>   -4.2383    1.0000 </r>
       <r>   -4.2141    1.0000 </r>
       <r>   -4.1881    1.0000 </r>
       <r>   -4.1428    1.0000 </r>
       <r>   -4.1048    1.0000 </r>
       <r>   -4.0700    1.0000 </r>
       <r>   -4.0063    1.0000 </r>
       <r>   -3.9305    1.0000 </r>
       <r>   -3.8965    1.0000 </r>
       <r>   -3.8610    1.0000 </r>
       <r>   -3.8179    1.0000 </r>
       <r>   -3.7815    1.0000 </r>
       <r>   -3.6409    1.0000 </r>
       <r>   -3.5662    1.0000 </r>
       <r>   -3.5417    1.0000 </r>
       <r>   -3.5239    1.0000 </r>
       <r>   -3.5104    1.0000 </r>
       <r>   -3.4893    1.0000 </r>
       <r>   -3.4457    1.0000 </r>
       <r>   -3.4176    1.0000 </r>
       <r>   -3.3417    1.0000 </r>
       <r>   -3.2641    1.0000 </r>
       <r>   -3.2195    1.0000 </r>
       <r>   -3.1598    1.0000 </r>
       <r>   -3.0993    1.0000 </r>
       <r>   -3.0737    1.0000 </r>
       <r>   -3.0519    1.0000 </r>
       <r>   -3.0208    1.0000 </r>
       <r>   -2.9431    1.0000 </r>
       <r>   -2.8489    1.0000 </r>
       <r>   -2.8121    1.0000 </r>
       <r>   -2.7180    1.0000 </r>
       <r>   -2.6869    1.0000 </r>
       <r>   -2.6542    1.0000 </r>
       <r>   -2.6180    1.0000 </r>
       <r>   -2.5940    1.0000 </r>
       <r>   -2.5760    1.0000 </r>
       <r>   -2.5455    1.0000 </r>
       <r>   -2.4993    1.0000 </r>
       <r>   -2.4661    1.0000 </r>
       <r>   -2.4124    1.0000 </r>
       <r>   -2.3942    1.0000 </r>
       <r>   -2.3711    1.0000 </r>
       <r>   -2.3629    1.0000 </r>
       <r>   -2.3478    1.0000 </r>
       <r>   -2.3111    1.0000 </r>
       <r>   -2.2909    1.0000 </r>
       <r>   -2.2058    1.0000 </r>
       <r>   -2.1735    1.0000 </r>
       <r>   -2.1468    1.0000 </r>
       <r>   -2.1016    1.0000 </r>
       <r>   -2.0824    1.0000 </r>
       <r>   -2.0738    1.0000 </r>
       <r>   -2.0579    1.0000 </r>
       <r>   -2.0294    1.0000 </r>
       <r>   -2.0019    1.0000 </r>
       <r>   -1.9867    1.0000 </r>
       <r>   -1.9602    1.0000 </r>
       <r>   -1.9366    1.0000 </r>
       <r>   -1.9128    1.0000 </r>
       <r>   -1.8837    1.0000 </r>
       <r>   -1.8742    1.0000 </r>
       <r>   -1.8472    1.0000 </r>
       <r>   -1.8392    1.0000 </r>
       <r>   -1.8308    1.0000 </r>
       <r>   -1.7787    1.0000 </r>
       <r>   -1.7679    1.0000 </r>
       <r>   -1.7479    1.0000 </r>
       <r>   -1.7289    1.0000 </r>
       <r>   -1.7061    1.0000 </r>
       <r>   -1.6641    1.0000 </r>
       <r>   -1.6367    1.0000 </r>
       <r>   -1.6159    1.0000 </r>
       <r>   -1.6057    1.0000 </r>
       <r>   -1.5529    1.0000 </r>
       <r>   -1.5486    1.0000 </r>
       <r>   -1.5234    1.0000 </r>
       <r>   -1.4696    1.0000 </r>
       <r>   -1.4354    1.0000 </r>
       <r>   -1.4205    1.0000 </r>
       <r>   -1.3680    1.0000 </r>
       <r>   -1.3591    1.0000 </r>
       <r>   -1.3091    1.0000 </r>
       <r>   -1.2419    1.0000 </r>
       <r>   -1.2016    1.0000 </r>
       <r>   -1.1370    1.0000 </r>
       <r>   -1.1059    1.0000 </r>
       <r>   -0.9999    1.0000 </r>
       <r>   -0.9794    1.0000 </r>
       <r>   -0.9506    1.0000 </r>
       <r>   -0.9147    1.0000 </r>
       <r>   -0.8725    1.0000 </r>
       <r>   -0.8613    1.0000 </r>
       <r>   -0.8225    1.0000 </r>
       <r>   -0.7859    1.0000 </r>
       <r>   -0.7211    1.0000 </r>
       <r>   -0.6831    1.0000 </r>
       <r>   -0.6505    1.0000 </r>
       <r>   -0.6190    1.0000 </r>
       <r>   -0.5681    1.0000 </r>
       <r>   -0.5151    1.0000 </r>
       <r>   -0.4871    1.0000 </r>
       <r>   -0.4614    1.0000 </r>
       <r>   -0.4356    1.0000 </r>
       <r>   -0.4010    1.0000 </r>
       <r>   -0.3633    1.0000 </r>
       <r>   -0.3355    1.0000 </r>
       <r>   -0.2962    1.0000 </r>
       <r>   -0.2588    1.0000 </r>
       <r>   -0.2057    1.0000 </r>
       <r>   -0.1470    1.0000 </r>
       <r>   -0.1400    1.0000 </r>
       <r>   -0.1098    1.0000 </r>
       <r>   -0.0932    1.0000 </r>
       <r>   -0.0601    1.0000 </r>
       <r>   -0.0297    1.0000 </r>
       <r>   -0.0023    1.0000 </r>
       <r>    0.0218    1.0000 </r>
       <r>    0.0422    1.0000 </r>
       <r>    0.0639    1.0000 </r>
       <r>    0.0947    1.0000 </r>
       <r>    0.1346    1.0000 </r>
       <r>    0.1489    1.0000 </r>
       <r>    0.1971    0.9999 </r>
       <r>    0.2157    0.9999 </r>
       <r>    0.2327    0.9999 </r>
       <r>    0.2894    0.9999 </r>
       <r>    0.3227    0.9998 </r>
       <r>    0.3626    0.9997 </r>
       <r>    0.4085    0.9995 </r>
       <r>    0.4458    0.9993 </r>
       <r>    0.5013    0.9988 </r>
       <r>    0.5143    0.9986 </r>
       <r>    0.5891    0.9971 </r>
       <r>    0.6003    0.9967 </r>
       <r>    0.6174    0.9961 </r>
       <r>    0.6307    0.9956 </r>
       <r>    0.6918    0.9919 </r>
       <r>    0.7062    0.9906 </r>
       <r>    0.7356    0.9874 </r>
       <r>    0.7866    0.9792 </r>
       <r>    0.8089    0.9742 </r>
       <r>    0.8338    0.9671 </r>
       <r>    0.8430    0.9641 </r>
       <r>    0.8879    0.9449 </r>
       <r>    0.9055    0.9349 </r>
       <r>    0.9294    0.9188 </r>
       <r>    0.9530    0.8994 </r>
       <r>    0.9862    0.8650 </r>
       <r>    1.0132    0.8302 </r>
       <r>    1.0267    0.8105 </r>
       <r>    1.0476    0.7762 </r>
       <r>    1.0570    0.7595 </r>
       <r>    1.1004    0.6717 </r>
       <r>    1.1125    0.6444 </r>
       <r>    1.1422    0.5738 </r>
       <r>    1.1740    0.4949 </r>
       <r>    1.1856    0.4660 </r>
       <r>    1.2053    0.4175 </r>
       <r>    1.2433    0.3288 </r>
       <r>    1.2641    0.2846 </r>
       <r>    1.3287    0.1727 </r>
       <r>    1.3675    0.1240 </r>
       <r>    1.3884    0.1030 </r>
       <r>    1.4449    0.0613 </r>
       <r>    1.4838    0.0424 </r>
       <r>    1.6182    0.0114 </r>
       <r>    1.6535    0.0080 </r>
       <r>    1.7179    0.0042 </r>
       <r>    2.0067    0.0002 </r>
       <r>    2.1755    0.0000 </r>
       <r>    2.4073    0.0000 </r>
       <r>    2.5331    0.0000 </r>
       <r>    2.8045    0.0000 </r>
       <r>    2.9354    0.0000 </r>
       <r>    3.3425    0.0000 </r>
       <r>    3.5559    0.0000 </r>
       <r>    3.9584    0.0000 </r>
       <r>    4.1014    0.0000 </r>
       <r>    4.4595    0.0000 </r>
       <r>    4.6315    0.0000 </r>
       <r>    4.8226    0.0000 </r>
       <r>    5.0513    0.0000 </r>
       <r>    5.1610    0.0000 </r>
       <r>    5.2731    0.0000 </r>
       <r>    5.5855    0.0000 </r>
       <r>    5.8108    0.0000 </r>
       <r>    6.1102    0.0000 </r>
       <r>    6.2981    0.0000 </r>
       <r>    6.4670    0.0000 </r>
       <r>    6.6822    0.0000 </r>
      </set>
      <set comment="kpoint 5">
       <r>  -11.0554    1.0000 </r>
       <r>   -7.8675    1.0000 </r>
       <r>   -6.5547    1.0000 </r>
       <r>   -6.1923    1.0000 </r>
       <r>   -6.0141    1.0000 </r>
       <r>   -5.7492    1.0000 </r>
       <r>   -5.6604    1.0000 </r>
       <r>   -5.4465    1.0000 </r>
       <r>   -5.4305    1.0000 </r>
       <r>   -5.3592    1.0000 </r>
       <r>   -5.3365    1.0000 </r>
       <r>   -5.2689    1.0000 </r>
       <r>   -5.2396    1.0000 </r>
       <r>   -5.0956    1.0000 </r>
       <r>   -5.0101    1.0000 </r>
       <r>   -4.9879    1.0000 </r>
       <r>   -4.9084    1.0000 </r>
       <r>   -4.8529    1.0000 </r>
       <r>   -4.7784    1.0000 </r>
       <r>   -4.5855    1.0000 </r>
       <r>   -4.5297    1.0000 </r>
       <r>   -4.4888    1.0000 </r>
       <r>   -4.4377    1.0000 </r>
       <r>   -4.4016    1.0000 </r>
       <r>   -4.3795    1.0000 </r>
       <r>   -4.3311    1.0000 </r>
       <r>   -4.2979    1.0000 </r>
       <r>   -4.2616    1.0000 </r>
       <r>   -4.2473    1.0000 </r>
       <r>   -4.2382    1.0000 </r>
       <r>   -4.2140    1.0000 </r>
       <r>   -4.1882    1.0000 </r>
       <r>   -4.1423    1.0000 </r>
       <r>   -4.1049    1.0000 </r>
       <r>   -4.0700    1.0000 </r>
       <r>   -4.0069    1.0000 </r>
       <r>   -3.9302    1.0000 </r>
       <r>   -3.8966    1.0000 </r>
       <r>   -3.8614    1.0000 </r>
       <r>   -3.8174    1.0000 </r>
       <r>   -3.7817    1.0000 </r>
       <r>   -3.6414    1.0000 </r>
       <r>   -3.5659    1.0000 </r>
       <r>   -3.5416    1.0000 </r>
       <r>   -3.5244    1.0000 </r>
       <r>   -3.5103    1.0000 </r>
       <r>   -3.4892    1.0000 </r>
       <r>   -3.4453    1.0000 </r>
       <r>   -3.4181    1.0000 </r>
       <r>   -3.3416    1.0000 </r>
       <r>   -3.2643    1.0000 </r>
       <r>   -3.2191    1.0000 </r>
       <r>   -3.1601    1.0000 </r>
       <r>   -3.0992    1.0000 </r>
       <r>   -3.0736    1.0000 </r>
       <r>   -3.0522    1.0000 </r>
       <r>   -3.0206    1.0000 </r>
       <r>   -2.9431    1.0000 </r>
       <r>   -2.8487    1.0000 </r>
       <r>   -2.8123    1.0000 </r>
[...]
       <r>    5.0223    0.0000 </r>
       <r>    5.3544    0.0000 </r>
       <r>    5.7798    0.0000 </r>
       <r>    5.8326    0.0000 </r>
       <r>    5.9473    0.0000 </r>
      </set>
     </set>
    </set>
   </array>
  </eigenvalues>
  <separator name="orbital magnetization" >
   <v name="MAGDIPOLOUT">      0.00000000      0.00000000      0.00000000</v>
  </separator>
  <dos>
   <i name="efermi">      1.17196943 </i>
   <total>
    <array>
     <dimension dim="1">gridpoints</dimension>
     <dimension dim="2">spin</dimension>
     <field>energy</field>
     <field>total</field>
     <field>integrated</field>
     <set>
      <set comment="spin 1">
       <r>   -12.0666     0.0000     0.0000 </r>
       <r>   -11.9998     0.0000     0.0000 </r>
       <r>   -11.9330     0.0003     0.0000 </r>
       <r>   -11.8662     0.0078     0.0005 </r>
       <r>   -11.7994     0.0077     0.0011 </r>
       <r>   -11.7326     0.0150     0.0021 </r>
       <r>   -11.6658     0.0291     0.0040 </r>
       <r>   -11.5990     0.0567     0.0078 </r>
       <r>   -11.5322     0.1099     0.0151 </r>
       <r>   -11.4654     0.2120     0.0293 </r>
       <r>   -11.3986     0.4047     0.0563 </r>
       <r>   -11.3318     0.7579     0.1069 </r>
       <r>   -11.2650     1.3692     0.1984 </r>
       <r>   -11.1982     2.3199     0.3534 </r>
       <r>   -11.1314     3.5360     0.5896 </r>
       <r>   -11.0646     4.6086     0.8974 </r>
       <r>   -10.9978     4.9223     1.2262 </r>
       <r>   -10.9310     4.2565     1.5106 </r>
       <r>   -10.8642     3.0578     1.7148 </r>
       <r>   -10.7974     1.9153     1.8428 </r>
       <r>   -10.7306     1.0983     1.9161 </r>
       <r>   -10.6638     0.5981     1.9561 </r>
       <r>   -10.5970     0.3165     1.9772 </r>
       <r>   -10.5302     0.1650     1.9883 </r>
       <r>   -10.4634     0.0853     1.9940 </r>
       <r>   -10.3966     0.0439     1.9969 </r>
       <r>   -10.3298     0.0226     1.9984 </r>
       <r>   -10.2630     0.0111     1.9992 </r>
       <r>   -10.1962     0.0000     2.0000 </r>
       <r>   -10.1294     0.0000     2.0000 </r>
       <r>   -10.0626     0.0000     2.0000 </r>
       <r>    -9.9958     0.0000     2.0000 </r>
       <r>    -9.9290     0.0000     2.0000 </r>
       <r>    -9.8622     0.0000     2.0000 </r>
       <r>    -9.7954     0.0000     2.0000 </r>
       <r>    -9.7286     0.0000     2.0000 </r>
       <r>    -9.6618     0.0000     2.0000 </r>
       <r>    -9.5950     0.0000     2.0000 </r>
       <r>    -9.5282     0.0000     2.0000 </r>
       <r>    -9.4614     0.0000     2.0000 </r>
       <r>    -9.3946     0.0000     2.0000 </r>
       <r>    -9.3278     0.0000     2.0000 </r>
       <r>    -9.2610     0.0000     2.0000 </r>
       <r>    -9.1942     0.0000     2.0000 </r>
       <r>    -9.1274     0.0000     2.0000 </r>
       <r>    -9.0606     0.0000     2.0000 </r>
       <r>    -8.9938     0.0000     2.0000 </r>
       <r>    -8.9270     0.0000     2.0000 </r>
       <r>    -8.8602     0.0004     2.0000 </r>
       <r>    -8.7934     0.0008     2.0001 </r>
       <r>    -8.7266     0.0017     2.0002 </r>
       <r>    -8.6598     0.0031     2.0004 </r>
       <r>    -8.5930     0.0056     2.0008 </r>
       <r>    -8.5262     0.0119     2.0016 </r>
       <r>    -8.4594     0.0220     2.0030 </r>
       <r>    -8.3926     0.0441     2.0060 </r>
       <r>    -8.3258     0.0827     2.0115 </r>
       <r>    -8.2590     0.1555     2.0219 </r>
       <r>    -8.1922     0.2823     2.0407 </r>
       <r>    -8.1254     0.4855     2.0732 </r>
       <r>    -8.0586     0.7688     2.1245 </r>
       <r>    -7.9918     1.1036     2.1983 </r>
       <r>    -7.9250     1.4265     2.2935 </r>
       <r>    -7.8582     1.6857     2.4061 </r>
       <r>    -7.7914     1.8552     2.5301 </r>
       <r>    -7.7246     1.9567     2.6608 </r>
       <r>    -7.6578     2.0347     2.7967 </r>
       <r>    -7.5911     2.1219     2.9384 </r>
       <r>    -7.5243     2.1916     3.0848 </r>
       <r>    -7.4575     2.2072     3.2323 </r>
       <r>    -7.3907     2.1856     3.3783 </r>
       <r>    -7.3239     2.1731     3.5234 </r>
       <r>    -7.2571     2.2009     3.6705 </r>
       <r>    -7.1903     2.2711     3.8222 </r>
       <r>    -7.1235     2.3547     3.9796 </r>
       <r>    -7.0567     2.4243     4.1416 </r>
       <r>    -6.9899     2.4795     4.3073 </r>
       <r>    -6.9231     2.5576     4.4782 </r>
       <r>    -6.8563     2.7102     4.6593 </r>
       <r>    -6.7895     3.0077     4.8602 </r>
       <r>    -6.7227     3.4909     5.0936 </r>
       <r>    -6.6559     4.0820     5.3663 </r>
       <r>    -6.5891     4.5943     5.6733 </r>
       <r>    -6.5223     4.8807     5.9993 </r>
       <r>    -6.4555     5.0006     6.3334 </r>
       <r>    -6.3887     5.1411     6.6769 </r>
       <r>    -6.3219     5.4265     7.0395 </r>
       <r>    -6.2551     5.8469     7.4301 </r>
       <r>    -6.1883     6.3335     7.8533 </r>
       <r>    -6.1215     6.8316     8.3096 </r>
       <r>    -6.0547     7.2927     8.7969 </r>
       <r>    -5.9879     7.7111     9.3120 </r>
       <r>    -5.9211     8.2125     9.8607 </r>
       <r>    -5.8543     9.0171    10.4632 </r>
       <r>    -5.7875    10.1570    11.1418 </r>
       <r>    -5.7207    11.4615    11.9077 </r>
       <r>    -5.6539    12.7656    12.7605 </r>
       <r>    -5.5871    14.1149    13.7035 </r>
       <r>    -5.5203    15.6605    14.7497 </r>
       <r>    -5.4535    17.5777    15.9241 </r>
       <r>    -5.3867    19.8293    17.2491 </r>
       <r>    -5.3199    22.0847    18.7244 </r>
       <r>    -5.2531    24.0393    20.3306 </r>
       <r>    -5.1863    25.6954    22.0473 </r>
       <r>    -5.1195    27.2811    23.8698 </r>
       <r>    -5.0527    28.9311    25.8026 </r>
       <r>    -4.9859    30.5520    27.8437 </r>
       <r>    -4.9191    31.9234    29.9768 </r>
       <r>    -4.8523    33.0297    32.1834 </r>
       <r>    -4.7855    34.2694    34.4731 </r>
       <r>    -4.7187    36.1390    36.8876 </r>
       <r>    -4.6519    38.7578    39.4770 </r>
       <r>    -4.5851    41.8123    42.2707 </r>
       <r>    -4.5183    44.7890    45.2634 </r>
       <r>    -4.4515    47.2674    48.4217 </r>
       <r>    -4.3847    49.0284    51.6975 </r>
       <r>    -4.3179    50.0053    55.0387 </r>
       <r>    -4.2511    50.2649    58.3971 </r>
       <r>    -4.1843    49.9170    61.7328 </r>
       <r>    -4.1175    49.0093    65.0075 </r>
       <r>    -4.0507    47.4751    68.1802 </r>
       <r>    -3.9839    45.3671    71.2114 </r>
       <r>    -3.9171    42.8665    74.0758 </r>
       <r>    -3.8503    40.3203    76.7704 </r>
       <r>    -3.7835    38.2939    79.3298 </r>
       <r>    -3.7167    37.4781    81.8351 </r>
       <r>    -3.6499    38.4180    84.4028 </r>
       <r>    -3.5831    40.9063    87.1372 </r>
       <r>    -3.5163    43.8340    90.0668 </r>
       <r>    -3.4495    45.8885    93.1339 </r>
       <r>    -3.3827    46.6606    96.2523 </r>
       <r>    -3.3159    46.7268    99.3756 </r>
       <r>    -3.2491    46.8217   102.5050 </r>
       <r>    -3.1823    47.1946   105.6588 </r>
       <r>    -3.1155    47.6511   108.8433 </r>
       <r>    -3.0487    47.8417   112.0405 </r>
       <r>    -2.9819    47.5990   115.2210 </r>
       <r>    -2.9151    47.0529   118.3650 </r>
       <r>    -2.8483    46.5944   121.4783 </r>
       <r>    -2.7815    46.7699   124.6034 </r>
       <r>    -2.7147    48.0343   127.8143 </r>
       <r>    -2.6479    50.3636   131.1803 </r>
       <r>    -2.5811    53.3478   134.7455 </r>
       <r>    -2.5143    56.6408   138.5302 </r>
       <r>    -2.4475    59.9187   142.5344 </r>
       <r>    -2.3807    62.7826   146.7296 </r>
       <r>    -2.3139    64.9801   151.0719 </r>
       <r>    -2.2471    66.8391   155.5388 </r>
       <r>    -2.1803    68.9973   160.1488 </r>
       <r>    -2.1135    71.6079   164.9338 </r>
       <r>    -2.0467    74.2146   169.8930 </r>
       <r>    -1.9799    76.2587   174.9882 </r>
       <r>    -1.9131    77.5551   180.1703 </r>
       <r>    -1.8463    78.0627   185.3867 </r>
       <r>    -1.7795    77.7515   190.5820 </r>
       <r>    -1.7127    76.6846   195.7062 </r>
       <r>    -1.6459    74.8045   200.7048 </r>
       <r>    -1.5791    71.7490   205.5002 </r>
       <r>    -1.5123    67.3769   210.0029 </r>
       <r>    -1.4455    62.0717   214.1513 </r>
       <r>    -1.3787    56.6500   217.9374 </r>
       <r>    -1.3119    51.9435   221.4096 </r>
       <r>    -1.2451    48.6855   224.6645 </r>
       <r>    -1.1783    47.4509   227.8366 </r>
       <r>    -1.1115    48.4119   231.0729 </r>
       <r>    -1.0447    51.2000   234.4958 </r>
       <r>    -0.9779    54.8944   238.1653 </r>
       <r>    -0.9111    58.1347   242.0509 </r>
       <r>    -0.8443    59.5769   246.0332 </r>
       <r>    -0.7775    58.6634   249.9545 </r>
       <r>    -0.7107    56.0914   253.7039 </r>
       <r>    -0.6439    53.3045   257.2664 </r>
       <r>    -0.5771    51.3770   260.7000 </r>
       <r>    -0.5103    50.6511   264.0850 </r>
       <r>    -0.4435    51.0269   267.4948 </r>
       <r>    -0.3767    52.2553   270.9866 </r>
       <r>    -0.3099    54.1047   274.6020 </r>
       <r>    -0.2431    56.3065   278.3647 </r>
       <r>    -0.1763    58.5102   282.2747 </r>
       <r>    -0.1095    60.4014   286.3120 </r>
       <r>    -0.0427    61.7803   290.4413 </r>
       <r>     0.0241    62.3806   294.6106 </r>
       <r>     0.0909    61.8624   298.7443 </r>
       <r>     0.1577    60.1137   302.7615 </r>
       <r>     0.2245    57.5489   306.6073 </r>
       <r>     0.2913    54.9524   310.2797 </r>
       <r>     0.3581    53.1007   313.8285 </r>
       <r>     0.4249    52.3747   317.3286 </r>
       <r>     0.4917    52.6516   320.8474 </r>
       <r>     0.5585    53.5834   324.4286 </r>
       <r>     0.6253    54.9770   328.1032 </r>
       <r>     0.6921    57.0224   331.9142 </r>
       <r>     0.7589    59.9360   335.9197 </r>
       <r>     0.8257    63.4472   340.1604 </r>
       <r>     0.8925    66.9043   344.6317 </r>
       <r>     0.9593    69.5992   349.2832 </r>
       <r>     1.0261    70.8858   354.0200 </r>
       <r>     1.0929    70.1931   358.7106 </r>
       <r>     1.1597    67.2984   363.2074 </r>
       <r>     1.2265    62.4865   367.3831 </r>
       <r>     1.2933    56.5363   371.1614 </r>
       <r>     1.3601    50.2145   374.5172 </r>
       <r>     1.4269    43.8143   377.4459 </r>
       <r>     1.4937    37.3516   379.9424 </r>
       <r>     1.5605    31.1593   382.0256 </r>
       <r>     1.6273    25.8769   383.7564 </r>
       <r>     1.6941    21.8801   385.2201 </r>
       <r>     1.7609    19.0814   386.4973 </r>
       <r>     1.8277    17.1069   387.6425 </r>
       <r>     1.8945    15.5505   388.6838 </r>
       <r>     1.9613    14.2299   389.6369 </r>
       <r>     2.0281    13.2215   390.5224 </r>
       <r>     2.0949    12.6279   391.3673 </r>
       <r>     2.1617    12.4333   392.1992 </r>
       <r>     2.2285    12.4595   393.0332 </r>
       <r>     2.2953    12.4720   393.8676 </r>
       <r>     2.3621    12.3568   394.6937 </r>
       <r>     2.4289    12.2059   395.5097 </r>
       <r>     2.4957    12.1086   396.3190 </r>
       <r>     2.5625    12.0267   397.1229 </r>
       <r>     2.6293    11.9240   397.9198 </r>
       <r>     2.6961    11.8578   398.7127 </r>
       <r>     2.7629    11.9224   399.5093 </r>
       <r>     2.8297    12.1147   400.3191 </r>
       <r>     2.8965    12.3723   401.1457 </r>
       <r>     2.9633    12.6115   401.9886 </r>
       <r>     3.0301    12.7452   402.8402 </r>
       <r>     3.0969    12.7272   403.6912 </r>
       <r>     3.1637    12.6907   404.5391 </r>
       <r>     3.2305    12.8233   405.3960 </r>
       <r>     3.2973    13.1366   406.2739 </r>
       <r>     3.3641    13.3770   407.1679 </r>
       <r>     3.4309    13.2927   408.0563 </r>
       <r>     3.4977    12.9315   408.9204 </r>
       <r>     3.5645    12.5185   409.7569 </r>
       <r>     3.6313    12.1564   410.5693 </r>
       <r>     3.6981    11.7971   411.3577 </r>
       <r>     3.7649    11.4952   412.1260 </r>
       <r>     3.8317    11.4448   412.8911 </r>
       <r>     3.8985    11.7329   413.6751 </r>
       <r>     3.9653    12.1484   414.4871 </r>
       <r>     4.0321    12.3337   415.3114 </r>
       <r>     4.0989    12.1385   416.1225 </r>
       <r>     4.1657    11.7113   416.9054 </r>
       <r>     4.2325    11.2744   417.6590 </r>
       <r>     4.2993    10.9686   418.3920 </r>
       <r>     4.3661    10.8548   419.1175 </r>
       <r>     4.4329    10.8786   419.8446 </r>
       <r>     4.4997    10.9504   420.5765 </r>
       <r>     4.5665    11.1028   421.3185 </r>
       <r>     4.6333    11.3614   422.0777 </r>
       <r>     4.7001    11.5206   422.8476 </r>
       <r>     4.7669    11.3787   423.6083 </r>
       <r>     4.8337    11.0467   424.3468 </r>
       <r>     4.9005    10.7779   425.0670 </r>
       <r>     4.9673    10.6929   425.7816 </r>
       <r>     5.0341    10.7412   426.4996 </r>
       <r>     5.1009    10.8038   427.2215 </r>
       <r>     5.1677    10.7801   427.9419 </r>
       <r>     5.2345    10.6833   428.6560 </r>
       <r>     5.3013    10.5918   429.3639 </r>
       <r>     5.3681    10.5662   430.0698 </r>
       <r>     5.4349    10.6057   430.7787 </r>
       <r>     5.5017    10.6203   431.4888 </r>
       <r>     5.5685    10.3750   432.1821 </r>
       <r>     5.6353     9.7017   432.8305 </r>
       <r>     5.7021     8.7631   433.4162 </r>
       <r>     5.7689     7.8864   433.9433 </r>
       <r>     5.8357     7.2316   434.4268 </r>
       <r>     5.9025     6.7815   434.8801 </r>
       <r>     5.9693     6.5050   435.3151 </r>
       <r>     6.0361     6.3808   435.7415 </r>
       <r>     6.1029     6.2831   436.1616 </r>
       <r>     6.1697     6.0704   436.5675 </r>
       <r>     6.2365     5.7339   436.9507 </r>
       <r>     6.3033     5.3187   437.3064 </r>
       <r>     6.3701     4.8525   437.6311 </r>
       <r>     6.4369     4.4241   437.9269 </r>
       <r>     6.5037     4.1687   438.2056 </r>
       <r>     6.5705     4.1323   438.4818 </r>
       <r>     6.6373     4.2179   438.7638 </r>
       <r>     6.7041     4.2301   439.0466 </r>
       <r>     6.7709     3.9684   439.3118 </r>
       <r>     6.8377     3.3727   439.5371 </r>
       <r>     6.9045     2.5686   439.7091 </r>
       <r>     6.9713     1.7697   439.8275 </r>
       <r>     7.0381     1.1207   439.9025 </r>
       <r>     7.1049     0.6613   439.9470 </r>
       <r>     7.1717     0.3707   439.9719 </r>
       <r>     7.2385     0.2004   439.9853 </r>
       <r>     7.3053     0.1051   439.9924 </r>
       <r>     7.3721     0.0541   439.9962 </r>
       <r>     7.4389     0.0270   439.9981 </r>
       <r>     7.5057     0.0121   439.9991 </r>
       <r>     7.5725     0.0048   439.9997 </r>
       <r>     7.6393     0.0014   439.9999 </r>
       <r>     7.7061     0.0005   440.0000 </r>
       <r>     7.7729     0.0002   440.0000 </r>
       <r>     7.8397     0.0000   440.0000 </r>
       <r>     7.9065     0.0000   440.0000 </r>
       <r>     7.9733     0.0000   440.0000 </r>
      </set>
     </set>
    </array>
   </total>
  </dos>
 </calculation>
 <structure name="finalpos" >
  <crystal>
   <varray name="basis" >
    <v>       8.42164176       0.00000000       0.00000000 </v>
    <v>       4.21082088       7.29335571       0.00000000 </v>
    <v>       0.00000000       0.00000000      21.87624171 </v>
   </varray>
   <i name="volume">   1343.68315334 </i>
   <varray name="rec_basis" >
    <v>       0.11874169      -0.06855555       0.00000000 </v>
    <v>       0.00000000       0.13711110       0.00000000 </v>
    <v>       0.00000000       0.00000000       0.04571169 </v>
   </varray>
  </crystal>
  <varray name="positions" >
   <v>       0.00000000       0.00000000       0.34283768 </v>
   <v>       0.33333333       0.00000000       0.34283768 </v>
   <v>       0.66666667       0.00000000       0.34283768 </v>
   <v>       0.00000000       0.33333333       0.34283768 </v>
   <v>       0.33333333       0.33333333       0.34283768 </v>
   <v>       0.66666667       0.33333333       0.34283768 </v>
   <v>       0.00000000       0.66666667       0.34283768 </v>
   <v>       0.33333333       0.66666667       0.34283768 </v>
   <v>       0.66666667       0.66666667       0.34283768 </v>
   <v>       0.11111111       0.11111111       0.44761256 </v>
   <v>       0.44444444       0.11111111       0.44761256 </v>
   <v>       0.77777778       0.11111111       0.44761256 </v>
   <v>       0.11111111       0.44444444       0.44761256 </v>
   <v>       0.44444444       0.44444444       0.44761256 </v>
   <v>       0.77777778       0.44444444       0.44761256 </v>
   <v>       0.11111111       0.77777778       0.44761256 </v>
   <v>       0.44444444       0.77777778       0.44761256 </v>
   <v>       0.77777778       0.77777778       0.44761256 </v>
   <v>       0.88693345       0.22294440       0.55210425 </v>
   <v>       0.22317345       0.22295857       0.55213518 </v>
   <v>       0.55474406       0.22353143       0.55250140 </v>
   <v>       0.88897493       0.55506638       0.55083427 </v>
   <v>       0.22369626       0.55458064       0.55250635 </v>
   <v>       0.55470635       0.55460394       0.55247948 </v>
   <v>       0.88895682       0.88874008       0.55085864 </v>
   <v>       0.22310987       0.88682386       0.55210305 </v>
   <v>       0.55526413       0.88876244       0.55083623 </v>
   <v>       0.99932871       0.99900635       0.65653331 </v>
   <v>       0.33431374       0.99901037       0.65651988 </v>
   <v>       0.66877136       0.99515000       0.65583619 </v>
   <v>       0.99956608       0.33368021       0.65647233 </v>
   <v>       0.32406910       0.32365386       0.66261401 </v>
   <v>       0.68502710       0.32379095       0.66250248 </v>
   <v>       0.99555018       0.66834141       0.65582304 </v>
   <v>       0.32404795       0.68476795       0.66247766 </v>
   <v>       0.66891686       0.66844631       0.65581714 </v>
   <v>       0.44437422       0.44413056       0.69570069 </v>
  </varray>
  <varray name="selective"  type="logical" >
   <v type="logical" >  F  F  F </v>
   <v type="logical" >  F  F  F </v>
   <v type="logical" >  F  F  F </v>
   <v type="logical" >  F  F  F </v>
   <v type="logical" >  F  F  F </v>
   <v type="logical" >  F  F  F </v>
   <v type="logical" >  F  F  F </v>
   <v type="logical" >  F  F  F </v>
   <v type="logical" >  F  F  F </v>
   <v type="logical" >  F  F  F </v>
   <v type="logical" >  F  F  F </v>
   <v type="logical" >  F  F  F </v>
   <v type="logical" >  F  F  F </v>
   <v type="logical" >  F  F  F </v>
   <v type="logical" >  F  F  F </v>
   <v type="logical" >  F  F  F </v>
   <v type="logical" >  F  F  F </v>
   <v type="logical" >  F  F  F </v>
   <v type="logical" >  T  T  T </v>
   <v type="logical" >  T  T  T </v>
   <v type="logical" >  T  T  T </v>
   <v type="logical" >  T  T  T </v>
   <v type="logical" >  T  T  T </v>
   <v type="logical" >  T  T  T </v>
   <v type="logical" >  T  T  T </v>
   <v type="logical" >  T  T  T </v>
   <v type="logical" >  T  T  T </v>
   <v type="logical" >  T  T  T </v>
   <v type="logical" >  T  T  T </v>
   <v type="logical" >  T  T  T </v>
   <v type="logical" >  T  T  T </v>
   <v type="logical" >  T  T  T </v>
   <v type="logical" >  T  T  T </v>
   <v type="logical" >  T  T  T </v>
   <v type="logical" >  T  T  T </v>
   <v type="logical" >  T  T  T </v>
   <v type="logical" >  T  T  T </v>
  </varray>
  <nose>
   <v>      -3.00000000       0.00000000       0.00010000       0.00010000 </v>
  </nose>
 </structure>
</modeling>
