 running on   20 total cores
 distrk:  each k-point on   20 cores,    1 groups
 distr:  one band on    4 cores,    5 groups
 using from now: INCAR     
 vasp.5.4.1 24Jun15 (build Oct 10 2016 12:42:00) complex                        
  
 POSCAR found :  2 types and      37 ions
 scaLAPACK will be used
 LDA part: xc-table for Pade appr. of Perdew
 POSCAR found :  2 types and      37 ions
 POSCAR, INCAR and KPOINTS ok, starting setup
 WARNING: small aliasing (wrap around) errors must be expected
 FFT: planning ...
 WAVECAR not read
 entering main loop
       N       E                     dE             d eps       ncg     rms          rms(c)
DAV:   1     0.219156710123E+04    0.21916E+04   -0.14403E+05 23830   0.117E+03
DAV:   2    -0.715180813325E+02   -0.22631E+04   -0.20948E+04 27890   0.269E+02
DAV:   3    -0.226372124770E+03   -0.15485E+03   -0.13952E+03 28250   0.635E+01
DAV:   4    -0.233164468071E+03   -0.67923E+01   -0.65459E+01 30070   0.128E+01    0.653E+01
RMM:   5    -0.223670535935E+03    0.94939E+01   -0.50068E+01 25044   0.145E+01    0.429E+01
RMM:   6    -0.265341465500E+03   -0.41671E+02   -0.74235E+01 24983   0.134E+01    0.566E+01
RMM:   7    -0.223216334048E+03    0.42125E+02   -0.30082E+01 24384   0.925E+00    0.214E+01
RMM:   8    -0.234077778797E+03   -0.10861E+02   -0.15783E+01 25189   0.619E+00    0.350E+01
RMM:   9    -0.224081274601E+03    0.99965E+01   -0.87777E+00 25235   0.465E+00    0.231E+01
RMM:  10    -0.218542779314E+03    0.55385E+01   -0.29782E+00 24403   0.298E+00    0.832E+00
RMM:  11    -0.218236578840E+03    0.30620E+00   -0.11649E+00 24925   0.175E+00    0.610E+00
RMM:  12    -0.218014557906E+03    0.22202E+00   -0.38489E-01 25446   0.101E+00    0.374E+00
RMM:  13    -0.217930813014E+03    0.83745E-01   -0.15107E-01 25141   0.637E-01    0.186E+00
RMM:  14    -0.217925917107E+03    0.48959E-02   -0.54263E-02 25467   0.381E-01    0.142E+00
RMM:  15    -0.217910380326E+03    0.15537E-01   -0.14580E-02 25018   0.209E-01    0.831E-01
RMM:  16    -0.217904838981E+03    0.55413E-02   -0.71590E-03 24938   0.139E-01    0.452E-01
RMM:  17    -0.217903779330E+03    0.10597E-02   -0.33334E-03 25063   0.948E-02    0.277E-01
RMM:  18    -0.217903500067E+03    0.27926E-03   -0.11231E-03 25323   0.571E-02    0.148E-01
RMM:  19    -0.217903258677E+03    0.24139E-03   -0.28035E-04 25594   0.277E-02    0.101E-01
RMM:  20    -0.217903197131E+03    0.61546E-04   -0.14419E-04 24962   0.205E-02    0.661E-02
RMM:  21    -0.217903181691E+03    0.15439E-04   -0.59202E-05 25116   0.121E-02    0.390E-02
RMM:  22    -0.217903215631E+03   -0.33939E-04   -0.21197E-05 24973   0.701E-03    0.279E-02
RMM:  23    -0.217903237900E+03   -0.22269E-04   -0.92905E-06 23749   0.464E-03    0.169E-02
RMM:  24    -0.217903306703E+03   -0.68803E-04   -0.19204E-05 24465   0.602E-03    0.258E-02
RMM:  25    -0.217903340376E+03   -0.33673E-04   -0.61268E-06 19436   0.353E-03    0.224E-02
RMM:  26    -0.217903393391E+03   -0.53015E-04   -0.59385E-06 19143   0.384E-03    0.926E-03
RMM:  27    -0.217903431700E+03   -0.38310E-04   -0.36167E-06 17521   0.241E-03    0.755E-03
RMM:  28    -0.217903461626E+03   -0.29926E-04   -0.23803E-06 16330   0.191E-03    0.386E-03
RMM:  29    -0.217903482610E+03   -0.20983E-04   -0.11601E-06 15370   0.133E-03    0.388E-03
RMM:  30    -0.217903509832E+03   -0.27222E-04   -0.17881E-06 16006   0.144E-03    0.169E-03
RMM:  31    -0.217903532080E+03   -0.22249E-04   -0.53102E-07 11757   0.873E-04    0.124E-03
RMM:  32    -0.217903541448E+03   -0.93673E-05   -0.21030E-07  9435   0.653E-04    0.151E-03
RMM:  33    -0.217903552848E+03   -0.11400E-04   -0.21520E-07 10851   0.674E-04    0.148E-03
RMM:  34    -0.217903556596E+03   -0.37486E-05   -0.78557E-08  6102   0.485E-04    0.759E-04
RMM:  35    -0.217903559571E+03   -0.29742E-05   -0.84723E-08  7876   0.558E-04    0.391E-04
RMM:  36    -0.217903560744E+03   -0.11735E-05   -0.44964E-08  6609   0.476E-04    0.423E-04
RMM:  37    -0.217903561439E+03   -0.69483E-06   -0.23703E-08  4314   0.402E-04
   1 F= -.21790356E+03 E0= -.21687547E+03  d E =-.205618E+01
