<?xml version="1.0" encoding="ISO-8859-1"?>
<modeling>
 <generator>
  <i name="program" type="string">vasp </i>
  <i name="version" type="string">5.4.1  </i>
  <i name="subversion" type="string">24Jun15 (build Oct 10 2016 12:42:00) complex                          parallel </i>
  <i name="platform" type="string">IFC91_ompi </i>
  <i name="date" type="string">2018 05 20 </i>
  <i name="time" type="string">21:00:02 </i>
 </generator>
 <incar>
  <i type="string" name="PREC">normal</i>
  <i type="string" name="ALGO"> fast</i>
  <i type="int" name="ISPIN">     1</i>
  <i type="int" name="NELMDL">    -4</i>
  <i type="int" name="NELMIN">     4</i>
  <i name="EDIFF">      0.00000100</i>
  <i name="ENCUT">    400.00000000</i>
  <i type="string" name="LREAL"> auto</i>
  <i type="int" name="ISMEAR">    -1</i>
  <i name="SIGMA">      0.10000000</i>
  <i type="logical" name="LWAVE"> F  </i>
  <i type="logical" name="LCHARG"> F  </i>
  <v type="int" name="KPOINT_BSE">    -1     0     0     0</v>
  <i type="string" name="GGA"> PE</i>
 </incar>
 <kpoints>
  <generation param="Monkhorst-Pack">
   <v type="int" name="divisions">       6        6        1 </v>
   <v name="usershift">      0.00000000       0.00000000       0.00000000 </v>
   <v name="genvec1">      0.16666667      -0.00000000       0.00000000 </v>
   <v name="genvec2">      0.00000000       0.16666667       0.00000000 </v>
   <v name="genvec3">      0.00000000       0.00000000       1.00000000 </v>
   <v name="shift">      0.50000000       0.50000000       0.00000000 </v>
  </generation>
  <varray name="kpointlist" >
   <v>       0.08333333       0.08333333       0.00000000 </v>
   <v>       0.00000000       0.08333333       0.00000000 </v>
   <v>      -0.08333333       0.00000000       0.00000000 </v>
   <v>       0.25000000       0.08333333       0.00000000 </v>
   <v>       0.16666667       0.25000000       0.00000000 </v>
   <v>      -0.08333333       0.16666667       0.00000000 </v>
   <v>       0.16666667      -0.08333333       0.00000000 </v>
   <v>      -0.08333333      -0.25000000       0.00000000 </v>
   <v>      -0.25000000      -0.16666667       0.00000000 </v>
   <v>       0.41666667       0.08333333       0.00000000 </v>
   <v>       0.33333333       0.41666667       0.00000000 </v>
   <v>      -0.08333333       0.33333333       0.00000000 </v>
   <v>       0.33333333      -0.08333333       0.00000000 </v>
   <v>      -0.08333333      -0.41666667       0.00000000 </v>
   <v>      -0.41666667      -0.33333333       0.00000000 </v>
   <v>      -0.41666667       0.08333333       0.00000000 </v>
   <v>       0.50000000      -0.41666667       0.00000000 </v>
   <v>      -0.08333333       0.50000000       0.00000000 </v>
   <v>       0.50000000      -0.08333333       0.00000000 </v>
   <v>      -0.08333333       0.41666667       0.00000000 </v>
   <v>       0.41666667       0.50000000       0.00000000 </v>
   <v>      -0.25000000       0.08333333       0.00000000 </v>
   <v>      -0.33333333      -0.25000000       0.00000000 </v>
   <v>      -0.08333333      -0.33333333       0.00000000 </v>
   <v>      -0.33333333      -0.08333333       0.00000000 </v>
   <v>      -0.08333333       0.25000000       0.00000000 </v>
   <v>       0.25000000       0.33333333       0.00000000 </v>
   <v>      -0.08333333       0.08333333       0.00000000 </v>
   <v>      -0.16666667      -0.08333333       0.00000000 </v>
   <v>      -0.08333333      -0.16666667       0.00000000 </v>
   <v>       0.25000000       0.25000000       0.00000000 </v>
   <v>       0.00000000       0.25000000       0.00000000 </v>
   <v>      -0.25000000       0.00000000       0.00000000 </v>
   <v>       0.41666667       0.25000000       0.00000000 </v>
   <v>       0.16666667       0.41666667       0.00000000 </v>
   <v>      -0.25000000       0.16666667       0.00000000 </v>
   <v>       0.16666667      -0.25000000       0.00000000 </v>
   <v>      -0.25000000      -0.41666667       0.00000000 </v>
   <v>      -0.41666667      -0.16666667       0.00000000 </v>
   <v>      -0.41666667       0.25000000       0.00000000 </v>
   <v>       0.33333333      -0.41666667       0.00000000 </v>
   <v>      -0.25000000       0.33333333       0.00000000 </v>
   <v>       0.33333333      -0.25000000       0.00000000 </v>
   <v>      -0.25000000       0.41666667       0.00000000 </v>
   <v>       0.41666667      -0.33333333       0.00000000 </v>
   <v>      -0.25000000       0.25000000       0.00000000 </v>
   <v>       0.50000000      -0.25000000       0.00000000 </v>
   <v>      -0.25000000       0.50000000       0.00000000 </v>
   <v>       0.41666667       0.41666667       0.00000000 </v>
   <v>       0.00000000       0.41666667       0.00000000 </v>
   <v>      -0.41666667      -0.00000000       0.00000000 </v>
   <v>      -0.41666667       0.41666667       0.00000000 </v>
   <v>       0.16666667      -0.41666667       0.00000000 </v>
   <v>      -0.41666667       0.16666667       0.00000000 </v>
  </varray>
  <varray name="weights" >
   <v>       0.01851852 </v>
   <v>       0.01851852 </v>
   <v>       0.01851852 </v>
   <v>       0.01851852 </v>
   <v>       0.01851852 </v>
   <v>       0.01851852 </v>
   <v>       0.01851852 </v>
   <v>       0.01851852 </v>
   <v>       0.01851852 </v>
   <v>       0.01851852 </v>
   <v>       0.01851852 </v>
   <v>       0.01851852 </v>
   <v>       0.01851852 </v>
   <v>       0.01851852 </v>
   <v>       0.01851852 </v>
   <v>       0.01851852 </v>
   <v>       0.01851852 </v>
   <v>       0.01851852 </v>
   <v>       0.01851852 </v>
   <v>       0.01851852 </v>
   <v>       0.01851852 </v>
   <v>       0.01851852 </v>
   <v>       0.01851852 </v>
   <v>       0.01851852 </v>
   <v>       0.01851852 </v>
   <v>       0.01851852 </v>
   <v>       0.01851852 </v>
   <v>       0.01851852 </v>
   <v>       0.01851852 </v>
   <v>       0.01851852 </v>
   <v>       0.01851852 </v>
   <v>       0.01851852 </v>
   <v>       0.01851852 </v>
   <v>       0.01851852 </v>
   <v>       0.01851852 </v>
   <v>       0.01851852 </v>
   <v>       0.01851852 </v>
   <v>       0.01851852 </v>
   <v>       0.01851852 </v>
   <v>       0.01851852 </v>
   <v>       0.01851852 </v>
   <v>       0.01851852 </v>
   <v>       0.01851852 </v>
   <v>       0.01851852 </v>
   <v>       0.01851852 </v>
   <v>       0.01851852 </v>
   <v>       0.01851852 </v>
   <v>       0.01851852 </v>
   <v>       0.01851852 </v>
   <v>       0.01851852 </v>
   <v>       0.01851852 </v>
   <v>       0.01851852 </v>
   <v>       0.01851852 </v>
   <v>       0.01851852 </v>
  </varray>
 </kpoints>
 <parameters>
  <separator name="general" >
   <i type="string" name="SYSTEM">unknown system</i>
   <i type="logical" name="LCOMPAT"> F  </i>
  </separator>
  <separator name="electronic" >
   <i type="string" name="PREC">normal</i>
   <i name="ENMAX">    400.00000000</i>
   <i name="ENAUG">    644.87300000</i>
   <i name="EDIFF">      0.00000100</i>
   <i type="int" name="IALGO">    68</i>
   <i type="int" name="IWAVPR">    10</i>
   <i type="int" name="NBANDS">   220</i>
   <i name="NELECT">    365.00000000</i>
   <i type="int" name="TURBO">     0</i>
   <i type="int" name="IRESTART">     0</i>
   <i type="int" name="NREBOOT">     0</i>
   <i type="int" name="NMIN">     0</i>
   <i name="EREF">      0.00000000</i>
   <separator name="electronic smearing" >
    <i type="int" name="ISMEAR">    -1</i>
    <i name="SIGMA">      0.10000000</i>
    <i name="KSPACING">      0.50000000</i>
    <i type="logical" name="KGAMMA"> T  </i>
   </separator>
   <separator name="electronic projectors" >
    <i type="logical" name="LREAL"> T  </i>
    <v name="ROPT">     -0.00050000     -0.00050000     -0.00050000</v>
    <i type="int" name="LMAXPAW">  -100</i>
    <i type="int" name="LMAXMIX">     2</i>
    <i type="logical" name="NLSPLINE"> F  </i>
   </separator>
   <separator name="electronic startup" >
    <i type="int" name="ISTART">     0</i>
    <i type="int" name="ICHARG">     2</i>
    <i type="int" name="INIWAV">     1</i>
   </separator>
   <separator name="electronic spin" >
    <i type="int" name="ISPIN">     1</i>
    <i type="logical" name="LNONCOLLINEAR"> F  </i>
    <v name="MAGMOM">      1.00000000      1.00000000      1.00000000      1.00000000      1.00000000      1.00000000      1.00000000      1.00000000      1.00000000      1.00000000      1.00000000      1.00000000      1.00000000      1.00000000      1.00000000      1.00000000      1.00000000      1.00000000      1.00000000      1.00000000
      1.00000000      1.00000000      1.00000000      1.00000000      1.00000000      1.00000000      1.00000000      1.00000000      1.00000000      1.00000000      1.00000000      1.00000000      1.00000000      1.00000000      1.00000000      1.00000000      1.00000000      1.00000000</v>
    <i name="NUPDOWN">     -1.00000000</i>
    <i type="logical" name="LSORBIT"> F  </i>
    <v name="SAXIS">      0.00000000      0.00000000      1.00000000</v>
    <i type="logical" name="LSPIRAL"> F  </i>
    <v name="QSPIRAL">      0.00000000      0.00000000      0.00000000</v>
    <i type="logical" name="LZEROZ"> F  </i>
   </separator>
   <separator name="electronic exchange-correlation" >
    <i type="logical" name="LASPH"> F  </i>
    <i type="logical" name="LMETAGGA"> F  </i>
   </separator>
   <separator name="electronic convergence" >
    <i type="int" name="NELM">    60</i>
    <i type="int" name="NELMDL">    -4</i>
    <i type="int" name="NELMIN">     4</i>
    <i name="ENINI">    400.00000000</i>
    <separator name="electronic convergence detail" >
     <i type="logical" name="LDIAG"> T  </i>
     <i type="logical" name="LSUBROT"> F  </i>
     <i name="WEIMIN">      0.00000000</i>
     <i name="EBREAK">      0.00000000</i>
     <i name="DEPER">      0.30000000</i>
     <i type="int" name="NRMM">     4</i>
     <i name="TIME">      0.40000000</i>
    </separator>
   </separator>
   <separator name="electronic mixer" >
    <i name="AMIX">      0.40000000</i>
    <i name="BMIX">      1.00000000</i>
    <i name="AMIN">      0.10000000</i>
    <i name="AMIX_MAG">      1.60000000</i>
    <i name="BMIX_MAG">      1.00000000</i>
    <separator name="electronic mixer details" >
     <i type="int" name="IMIX">     4</i>
     <i type="logical" name="MIXFIRST"> F  </i>
     <i type="int" name="MAXMIX">   -45</i>
     <i name="WC">    100.00000000</i>
     <i type="int" name="INIMIX">     1</i>
     <i type="int" name="MIXPRE">     1</i>
     <i type="int" name="MREMOVE">     5</i>
    </separator>
   </separator>
   <separator name="electronic dipolcorrection" >
    <i type="logical" name="LDIPOL"> F  </i>
    <i type="logical" name="LMONO"> F  </i>
    <i type="int" name="IDIPOL">     0</i>
    <i name="EPSILON">      1.00000000</i>
    <v name="DIPOL">   -100.00000000   -100.00000000   -100.00000000</v>
    <i name="EFIELD">      0.00000000</i>
   </separator>
  </separator>
  <separator name="grids" >
   <i type="int" name="NGX">    42</i>
   <i type="int" name="NGY">    42</i>
   <i type="int" name="NGZ">   108</i>
   <i type="int" name="NGXF">    84</i>
   <i type="int" name="NGYF">    84</i>
   <i type="int" name="NGZF">   216</i>
   <i type="logical" name="ADDGRID"> F  </i>
  </separator>
  <separator name="ionic" >
   <i type="int" name="NSW">     0</i>
   <i type="int" name="IBRION">    -1</i>
   <i type="int" name="ISIF">     2</i>
   <i name="PSTRESS">      0.00000000</i>
   <i name="EDIFFG">      0.00001000</i>
   <i type="int" name="NFREE">     0</i>
   <i name="POTIM">      0.50000000</i>
   <i name="SMASS">     -3.00000000</i>
   <i name="SCALEE">      1.00000000</i>
  </separator>
  <separator name="ionic md" >
   <i name="TEBEG">      0.00010000</i>
   <i name="TEEND">      0.00010000</i>
   <i type="int" name="NBLOCK">     1</i>
   <i type="int" name="KBLOCK">     1</i>
   <i type="int" name="NPACO">   256</i>
   <i name="APACO">     16.00000000</i>
  </separator>
  <separator name="symmetry" >
   <i type="int" name="ISYM">     2</i>
   <i name="SYMPREC">      0.00001000</i>
  </separator>
  <separator name="dos" >
   <i type="logical" name="LORBIT"> F  </i>
   <v name="RWIGS">     -1.00000000     -1.00000000     -1.00000000</v>
   <i type="int" name="NEDOS">   301</i>
   <i name="EMIN">     10.00000000</i>
   <i name="EMAX">    -10.00000000</i>
   <i name="EFERMI">      0.00000000</i>
  </separator>
  <separator name="writing" >
   <i type="int" name="NWRITE">     2</i>
   <i type="logical" name="LWAVE"> F  </i>
   <i type="logical" name="LCHARG"> F  </i>
   <i type="logical" name="LPARD"> F  </i>
   <i type="logical" name="LVTOT"> F  </i>
   <i type="logical" name="LVHAR"> F  </i>
   <i type="logical" name="LELF"> F  </i>
   <i type="logical" name="LOPTICS"> F  </i>
   <v name="STM">      0.00000000      0.00000000      0.00000000      0.00000000      0.00000000      0.00000000      0.00000000</v>
  </separator>
  <separator name="performance" >
   <i type="int" name="NPAR">     5</i>
   <i type="int" name="NSIM">     4</i>
   <i type="int" name="NBLK">    -1</i>
   <i type="logical" name="LPLANE"> T  </i>
   <i type="logical" name="LSCALAPACK"> T  </i>
   <i type="logical" name="LSCAAWARE"> F  </i>
   <i type="logical" name="LSCALU"> F  </i>
   <i type="logical" name="LASYNC"> F  </i>
   <i type="logical" name="LORBITALREAL"> F  </i>
  </separator>
  <separator name="miscellaneous" >
   <i type="int" name="IDIOT">     3</i>
   <i type="logical" name="LMUSIC"> F  </i>
   <v name="POMASS">    195.08000000     12.01100000      1.00000000</v>
   <v name="DARWINR">      0.00000000      0.00000000      0.00000000</v>
   <v name="DARWINV">      1.00000000      1.00000000      1.00000000</v>
   <i type="logical" name="LCORR"> T  </i>
  </separator>
  <i type="logical" name="GGA_COMPAT"> T  </i>
  <i type="logical" name="LBERRY"> F  </i>
  <i type="int" name="ICORELEVEL">     0</i>
  <i type="logical" name="LDAU"> F  </i>
  <i type="int" name="I_CONSTRAINED_M">     0</i>
  <separator name="electronic exchange-correlation" >
   <i type="string" name="GGA">PE</i>
   <i type="int" name="VOSKOWN">     0</i>
   <i type="logical" name="LHFCALC"> F  </i>
   <i type="string" name="PRECFOCK"></i>
   <i type="logical" name="LSYMGRAD"> F  </i>
   <i type="logical" name="LHFONE"> F  </i>
   <i type="logical" name="LRHFCALC"> F  </i>
   <i type="logical" name="LTHOMAS"> F  </i>
   <i type="logical" name="LMODELHF"> F  </i>
   <i name="ENCUT4O">     -1.00000000</i>
   <i type="int" name="EXXOEP">     0</i>
   <i type="int" name="FOURORBIT">     0</i>
   <i name="AEXX">      0.00000000</i>
   <i name="HFALPHA">      0.00000000</i>
   <i name="MCALPHA">      0.00000000</i>
   <i name="ALDAX">      1.00000000</i>
   <i name="AGGAX">      1.00000000</i>
   <i name="ALDAC">      1.00000000</i>
   <i name="AGGAC">      1.00000000</i>
   <i type="int" name="NKREDX">     1</i>
   <i type="int" name="NKREDY">     1</i>
   <i type="int" name="NKREDZ">     1</i>
   <i type="logical" name="SHIFTRED"> F  </i>
   <i type="logical" name="ODDONLY"> F  </i>
   <i type="logical" name="EVENONLY"> F  </i>
   <i type="int" name="LMAXFOCK">     0</i>
   <i type="int" name="NMAXFOCKAE">     0</i>
   <i type="logical" name="LFOCKAEDFT"> F  </i>
   <i name="HFSCREEN">      0.00000000</i>
   <i name="HFSCREENC">      0.00000000</i>
   <i type="int" name="NBANDSGWLOW">     0</i>
  </separator>
  <separator name="vdW DFT" >
   <i type="logical" name="LUSE_VDW"> F  </i>
   <i name="Zab_VDW">     -0.84910000</i>
   <i name="PARAM1">      0.12340000</i>
   <i name="PARAM2">      1.00000000</i>
   <i name="PARAM3">      0.00000000</i>
  </separator>
  <separator name="model GW" >
   <i type="int" name="MODEL_GW">     0</i>
   <i name="MODEL_EPS0">     21.21604979</i>
   <i name="MODEL_ALPHA">      1.00000000</i>
  </separator>
  <separator name="linear response parameters" >
   <i type="logical" name="LEPSILON"> F  </i>
   <i type="logical" name="LRPA"> F  </i>
   <i type="logical" name="LNABLA"> F  </i>
   <i type="logical" name="LVEL"> F  </i>
   <i type="int" name="KINTER">     0</i>
   <i name="CSHIFT">      0.10000000</i>
   <i name="OMEGAMAX">     -1.00000000</i>
   <i name="DEG_THRESHOLD">      0.00200000</i>
  </separator>
  <separator name="orbital magnetization" >
   <i type="logical" name="NUCIND"> F  </i>
   <v name="MAGPOS">      0.00000000      0.00000000      0.00000000</v>
   <i type="logical" name="LNICSALL"> T  </i>
   <i type="logical" name="ORBITALMAG"> F  </i>
   <i type="logical" name="LMAGBLOCH"> F  </i>
   <i type="logical" name="LCHIMAG"> F  </i>
   <i type="logical" name="LGAUGE"> T  </i>
   <i type="int" name="MAGATOM">     0</i>
   <v name="MAGDIPOL">      0.00000000      0.00000000      0.00000000</v>
   <v name="AVECCONST">      0.00000000      0.00000000      0.00000000</v>
  </separator>
  <separator name="response functions" >
   <i type="logical" name="LADDER"> F  </i>
   <i type="logical" name="LFXC"> F  </i>
   <i type="logical" name="LHARTREE"> T  </i>
   <i type="int" name="IBSE">     0</i>
   <v type="int" name="KPOINT">    -1     0     0     0</v>
   <i type="logical" name="LTCTE"> F  </i>
   <i type="logical" name="LTETE"> F  </i>
   <i type="logical" name="LTRIPLET"> F  </i>
   <i type="logical" name="LFXCEPS"> F  </i>
   <i type="logical" name="LFXHEG"> F  </i>
   <i type="int" name="NATURALO">     0</i>
   <i type="logical" name="L2ORDER"> F  </i>
   <i type="logical" name="LUSEW"> F  </i>
   <i name="ENCUTGW">     -2.00000000</i>
   <i name="ENCUTGWSOFT">     -2.00000000</i>
   <i name="ENCUTLF">     -1.00000000</i>
   <i type="int" name="LMAXMP2">    -1</i>
   <i name="SCISSOR">      0.00000000</i>
   <i type="int" name="NOMEGA">     0</i>
   <i type="int" name="NOMEGAR">     0</i>
   <i type="int" name="NBANDSGW">    -1</i>
   <i type="int" name="NBANDSO">    -1</i>
   <i type="int" name="NBANDSV">    -1</i>
   <i type="int" name="NELM">     1</i>
   <i type="int" name="NELMHF">     1</i>
   <i type="int" name="DIM">     3</i>
   <i type="int" name="ANTIRES">     0</i>
   <i name="OMEGAMAX">    -30.00000000</i>
   <i name="OMEGAMIN">    -30.00000000</i>
   <i name="OMEGATL">   -200.00000000</i>
   <i type="int" name="OMEGAGRID">     0</i>
   <i name="CSHIFT">     -0.10000000</i>
   <i type="logical" name="SELFENERGY"> F  </i>
   <i type="logical" name="LSPECTRAL"> F  </i>
   <i type="logical" name="LSPECTRALGW"> F  </i>
   <i type="logical" name="LSINGLES"> F  </i>
   <i type="logical" name="LFERMIGW"> F  </i>
   <i type="logical" name="ODDONLYGW"> F  </i>
   <i type="logical" name="EVENONLYGW"> F  </i>
   <i type="int" name="NKREDLFX">     1</i>
   <i type="int" name="NKREDLFY">     1</i>
   <i type="int" name="NKREDLFZ">     1</i>
   <i type="int" name="MAXMEM">  1800</i>
   <i type="int" name="TELESCOPE">     0</i>
   <i type="int" name="TAUPAR">     1</i>
   <i type="int" name="OMEGAPAR">    -1</i>
   <i name="LAMBDA">      1.00000000</i>
  </separator>
  <separator name="External order field" >
   <i name="OFIELD_KAPPA">      0.00000000</i>
   <v name="OFIELD_K">      0.00000000      0.00000000      0.00000000</v>
   <i name="OFIELD_Q6_NEAR">      0.00000000</i>
   <i name="OFIELD_Q6_FAR">      0.00000000</i>
   <i name="OFIELD_A">      0.00000000</i>
  </separator>
 </parameters>
 <atominfo>
  <atoms>      38 </atoms>
  <types>       3 </types>
  <array name="atoms" >
   <dimension dim="1">ion</dimension>
   <field type="string">element</field>
   <field type="int">atomtype</field>
   <set>
    <rc><c>Pt</c><c>   1</c></rc>
    <rc><c>Pt</c><c>   1</c></rc>
    <rc><c>Pt</c><c>   1</c></rc>
    <rc><c>Pt</c><c>   1</c></rc>
    <rc><c>Pt</c><c>   1</c></rc>
    <rc><c>Pt</c><c>   1</c></rc>
    <rc><c>Pt</c><c>   1</c></rc>
    <rc><c>Pt</c><c>   1</c></rc>
    <rc><c>Pt</c><c>   1</c></rc>
    <rc><c>Pt</c><c>   1</c></rc>
    <rc><c>Pt</c><c>   1</c></rc>
    <rc><c>Pt</c><c>   1</c></rc>
    <rc><c>Pt</c><c>   1</c></rc>
    <rc><c>Pt</c><c>   1</c></rc>
    <rc><c>Pt</c><c>   1</c></rc>
    <rc><c>Pt</c><c>   1</c></rc>
    <rc><c>Pt</c><c>   1</c></rc>
    <rc><c>Pt</c><c>   1</c></rc>
    <rc><c>Pt</c><c>   1</c></rc>
    <rc><c>Pt</c><c>   1</c></rc>
    <rc><c>Pt</c><c>   1</c></rc>
    <rc><c>Pt</c><c>   1</c></rc>
    <rc><c>Pt</c><c>   1</c></rc>
    <rc><c>Pt</c><c>   1</c></rc>
    <rc><c>Pt</c><c>   1</c></rc>
    <rc><c>Pt</c><c>   1</c></rc>
    <rc><c>Pt</c><c>   1</c></rc>
    <rc><c>Pt</c><c>   1</c></rc>
    <rc><c>Pt</c><c>   1</c></rc>
    <rc><c>Pt</c><c>   1</c></rc>
    <rc><c>Pt</c><c>   1</c></rc>
    <rc><c>Pt</c><c>   1</c></rc>
    <rc><c>Pt</c><c>   1</c></rc>
    <rc><c>Pt</c><c>   1</c></rc>
    <rc><c>Pt</c><c>   1</c></rc>
    <rc><c>Pt</c><c>   1</c></rc>
    <rc><c>C </c><c>   2</c></rc>
    <rc><c>H </c><c>   3</c></rc>
   </set>
  </array>
  <array name="atomtypes" >
   <dimension dim="1">type</dimension>
   <field type="int">atomspertype</field>
   <field type="string">element</field>
   <field>mass</field>
   <field>valence</field>
   <field type="string">pseudopotential</field>
   <set>
    <rc><c>  36</c><c>Pt</c><c>    195.08000000</c><c>     10.00000000</c><c>  PAW_PBE Pt 04Feb2005                  </c></rc>
    <rc><c>   1</c><c>C </c><c>     12.01100000</c><c>      4.00000000</c><c>  PAW_PBE C 08Apr2002                   </c></rc>
    <rc><c>   1</c><c>H </c><c>      1.00000000</c><c>      1.00000000</c><c>  PAW_PBE H 15Jun2001                   </c></rc>
   </set>
  </array>
 </atominfo>
 <structure name="initialpos" >
  <crystal>
   <varray name="basis" >
    <v>       8.42164176       0.00000000       0.00000000 </v>
    <v>       4.21082088       7.29335571       0.00000000 </v>
    <v>       0.00000000       0.00000000      21.87624171 </v>
   </varray>
   <i name="volume">   1343.68315334 </i>
   <varray name="rec_basis" >
    <v>       0.11874169      -0.06855555       0.00000000 </v>
    <v>       0.00000000       0.13711110       0.00000000 </v>
    <v>       0.00000000       0.00000000       0.04571169 </v>
   </varray>
  </crystal>
  <varray name="positions" >
   <v>       0.00000000       0.00000000       0.34283768 </v>
   <v>       0.33333333       0.00000000       0.34283768 </v>
   <v>       0.66666667       0.00000000       0.34283768 </v>
   <v>       0.00000000       0.33333333       0.34283768 </v>
   <v>       0.33333333       0.33333333       0.34283768 </v>
   <v>       0.66666667       0.33333333       0.34283768 </v>
   <v>       0.00000000       0.66666667       0.34283768 </v>
   <v>       0.33333333       0.66666667       0.34283768 </v>
   <v>       0.66666667       0.66666667       0.34283768 </v>
   <v>       0.11111111       0.11111111       0.44761256 </v>
   <v>       0.44444444       0.11111111       0.44761256 </v>
   <v>       0.77777778       0.11111111       0.44761256 </v>
   <v>       0.11111111       0.44444444       0.44761256 </v>
   <v>       0.44444444       0.44444444       0.44761256 </v>
   <v>       0.77777778       0.44444444       0.44761256 </v>
   <v>       0.11111111       0.77777778       0.44761256 </v>
   <v>       0.44444444       0.77777778       0.44761256 </v>
   <v>       0.77777778       0.77777778       0.44761256 </v>
   <v>       0.88706171       0.22270836       0.55197431 </v>
   <v>       0.22317109       0.22268400       0.55197526 </v>
   <v>       0.55496162       0.22299928       0.55240074 </v>
   <v>       0.88896641       0.55474178       0.55101925 </v>
   <v>       0.22327025       0.55458533       0.55240215 </v>
   <v>       0.55491142       0.55465699       0.55243798 </v>
   <v>       0.88900367       0.88864281       0.55103160 </v>
   <v>       0.22302540       0.88667432       0.55195033 </v>
   <v>       0.55512154       0.88865425       0.55101056 </v>
   <v>       0.99986853       0.99886464       0.65645076 </v>
   <v>       0.33309637       0.99874989       0.65640106 </v>
   <v>       0.66851218       0.99492351       0.65622665 </v>
   <v>       0.99990558       0.33207826       0.65641379 </v>
   <v>       0.32958538       0.32879713       0.66263379 </v>
   <v>       0.67372077       0.32879151       0.66272622 </v>
   <v>       0.99556726       0.66782838       0.65619516 </v>
   <v>       0.32967796       0.67257302       0.66273802 </v>
   <v>       0.66874887       0.66789261       0.65620526 </v>
   <v>       0.44434811       0.44303213       0.71219407 </v>
   <v>       0.44430597       0.44280093       0.76251615 </v>
  </varray>
  <varray name="selective"  type="logical" >
   <v type="logical" >  F  F  F </v>
   <v type="logical" >  F  F  F </v>
   <v type="logical" >  F  F  F </v>
   <v type="logical" >  F  F  F </v>
   <v type="logical" >  F  F  F </v>
   <v type="logical" >  F  F  F </v>
   <v type="logical" >  F  F  F </v>
   <v type="logical" >  F  F  F </v>
   <v type="logical" >  F  F  F </v>
   <v type="logical" >  F  F  F </v>
   <v type="logical" >  F  F  F </v>
   <v type="logical" >  F  F  F </v>
   <v type="logical" >  F  F  F </v>
   <v type="logical" >  F  F  F </v>
   <v type="logical" >  F  F  F </v>
   <v type="logical" >  F  F  F </v>
   <v type="logical" >  F  F  F </v>
   <v type="logical" >  F  F  F </v>
   <v type="logical" >  T  T  T </v>
   <v type="logical" >  T  T  T </v>
   <v type="logical" >  T  T  T </v>
   <v type="logical" >  T  T  T </v>
   <v type="logical" >  T  T  T </v>
   <v type="logical" >  T  T  T </v>
   <v type="logical" >  T  T  T </v>
   <v type="logical" >  T  T  T </v>
   <v type="logical" >  T  T  T </v>
   <v type="logical" >  T  T  T </v>
   <v type="logical" >  T  T  T </v>
   <v type="logical" >  T  T  T </v>
   <v type="logical" >  T  T  T </v>
   <v type="logical" >  T  T  T </v>
   <v type="logical" >  T  T  T </v>
   <v type="logical" >  T  T  T </v>
   <v type="logical" >  T  T  T </v>
   <v type="logical" >  T  T  T </v>
   <v type="logical" >  T  T  T </v>
   <v type="logical" >  T  T  T </v>
  </varray>
  <nose>
   <v>      -3.00000000       0.00000000       0.00010000       0.00010000 </v>
  </nose>
 </structure>
 <calculation>
  <scstep>
   <time name="dav">   67.82   68.22</time>
   <time name="total">   68.52   68.95</time>
   <energy>
    <i name="alphaZ">    935.82383185 </i>
    <i name="ewald">  92816.60391968 </i>
    <i name="hartreedc">-121046.36250965 </i>
    <i name="XCdc">    136.57391854 </i>
    <i name="pawpsdc">  25171.10334923 </i>
    <i name="pawaedc"> -24153.48497674 </i>
    <i name="eentropy">     -0.53877773 </i>
    <i name="bandstr">   1919.16327459 </i>
    <i name="atom">  26407.63612164 </i>
    <i name="e_fr_energy">   2186.51815141 </i>
    <i name="e_wo_entrp">   2187.05692914 </i>
    <i name="e_0_energy">   2186.78754028 </i>
   </energy>
  </scstep>
  <scstep>
   <time name="dav">   78.03   78.23</time>
   <time name="total">   78.03   78.29</time>
   <energy>
    <i name="e_fr_energy">    -75.88315530 </i>
    <i name="e_wo_entrp">    -74.83673677 </i>
    <i name="e_0_energy">    -75.35994603 </i>
   </energy>
  </scstep>
  <scstep>
   <time name="dav">   79.73   79.71</time>
   <time name="total">   79.73   79.76</time>
   <energy>
    <i name="e_fr_energy">   -231.42458346 </i>
    <i name="e_wo_entrp">   -229.56296707 </i>
    <i name="e_0_energy">   -230.49377526 </i>
   </energy>
  </scstep>
  <scstep>
   <time name="dav">   83.68   84.66</time>
   <time name="total">   85.98   87.03</time>
   <energy>
    <i name="e_fr_energy">   -238.16148999 </i>
    <i name="e_wo_entrp">   -236.23738817 </i>
    <i name="e_0_energy">   -237.19943908 </i>
   </energy>
  </scstep>
  <scstep>
   <time name="diag">   13.36   13.38</time>
   <time name="diis">   28.47   28.66</time>
   <time name="orth">    2.88    2.89</time>
   <time name="total">   48.93   49.30</time>
   <energy>
    <i name="e_fr_energy">   -227.70131177 </i>
    <i name="e_wo_entrp">   -225.69768253 </i>
    <i name="e_0_energy">   -226.69949715 </i>
   </energy>
  </scstep>
  <scstep>
   <time name="diag">   10.56   10.59</time>
   <time name="diis">   28.00   28.07</time>
   <time name="orth">    2.94    2.97</time>
   <time name="total">   43.94   44.10</time>
   <energy>
    <i name="e_fr_energy">   -270.66388111 </i>
    <i name="e_wo_entrp">   -269.48984156 </i>
    <i name="e_0_energy">   -270.07686133 </i>
   </energy>
  </scstep>
  <scstep>
   <time name="diag">   10.20   10.53</time>
   <time name="diis">   28.28   28.66</time>
   <time name="orth">    2.88    2.92</time>
   <time name="total">   43.96   44.82</time>
   <energy>
    <i name="e_fr_energy">   -229.00973161 </i>
    <i name="e_wo_entrp">   -227.31049872 </i>
    <i name="e_0_energy">   -228.16011517 </i>
   </energy>
  </scstep>
  <scstep>
   <time name="diag">   10.89   10.90</time>
   <time name="diis">   28.64   28.63</time>
   <time name="orth">    2.90    2.89</time>
   <time name="total">   44.82   44.83</time>
   <energy>
    <i name="e_fr_energy">   -235.71751532 </i>
    <i name="e_wo_entrp">   -234.38674728 </i>
    <i name="e_0_energy">   -235.05213130 </i>
   </energy>
  </scstep>
  <scstep>
   <time name="diag">   10.80   10.84</time>
   <time name="diis">   28.27   28.57</time>
   <time name="orth">    2.91    2.95</time>
   <time name="total">   44.36   45.02</time>
   <energy>
    <i name="e_fr_energy">   -231.18720840 </i>
    <i name="e_wo_entrp">   -229.34854502 </i>
    <i name="e_0_energy">   -230.26787671 </i>
   </energy>
  </scstep>
  <scstep>
   <time name="diag">   10.28   10.36</time>
   <time name="diis">   28.45   28.50</time>
   <time name="orth">    2.89    2.92</time>
   <time name="total">   44.08   44.26</time>
   <energy>
    <i name="e_fr_energy">   -223.18850737 </i>
    <i name="e_wo_entrp">   -221.18675793 </i>
    <i name="e_0_energy">   -222.18763265 </i>
   </energy>
  </scstep>
  <scstep>
   <time name="diag">   10.46   10.46</time>
   <time name="diis">   27.63   27.68</time>
   <time name="orth">    7.04    7.63</time>
   <time name="total">   47.71   48.46</time>
   <energy>
    <i name="e_fr_energy">   -222.75499226 </i>
    <i name="e_wo_entrp">   -220.68391034 </i>
    <i name="e_0_energy">   -221.71945130 </i>
   </energy>
  </scstep>
  <scstep>
   <time name="diag">   10.43   10.42</time>
   <time name="diis">   27.95   28.27</time>
   <time name="orth">    2.83    2.87</time>
   <time name="total">   43.63   44.01</time>
   <energy>
    <i name="e_fr_energy">   -222.46018624 </i>
    <i name="e_wo_entrp">   -220.38581402 </i>
    <i name="e_0_energy">   -221.42300013 </i>
   </energy>
  </scstep>
  <scstep>
   <time name="diag">   10.27   10.37</time>
   <time name="diis">   28.09   28.42</time>
   <time name="orth">    2.72    2.81</time>
   <time name="total">   43.85   44.83</time>
   <energy>
    <i name="e_fr_energy">   -222.34709560 </i>
    <i name="e_wo_entrp">   -220.27951578 </i>
    <i name="e_0_energy">   -221.31330569 </i>
   </energy>
  </scstep>
  <scstep>
   <time name="diag">   10.39   10.39</time>
   <time name="diis">   28.48   28.63</time>
   <time name="orth">    2.91    2.93</time>
   <time name="total">   44.16   44.36</time>
   <energy>
    <i name="e_fr_energy">   -222.33732934 </i>
    <i name="e_wo_entrp">   -220.27827093 </i>
    <i name="e_0_energy">   -221.30780013 </i>
   </energy>
  </scstep>
  <scstep>
   <time name="diag">   10.58   10.57</time>
   <time name="diis">   27.90   28.26</time>
   <time name="orth">    2.83    2.85</time>
   <time name="total">   43.73   44.14</time>
   <energy>
    <i name="e_fr_energy">   -222.31686436 </i>
    <i name="e_wo_entrp">   -220.24920423 </i>
    <i name="e_0_energy">   -221.28303429 </i>
   </energy>
  </scstep>
  <scstep>
   <time name="diag">   10.51   10.52</time>
   <time name="diis">   28.18   28.19</time>
   <time name="orth">    2.90    2.90</time>
   <time name="total">   43.98   44.01</time>
   <energy>
    <i name="e_fr_energy">   -222.31168207 </i>
    <i name="e_wo_entrp">   -220.23636121 </i>
    <i name="e_0_energy">   -221.27402164 </i>
   </energy>
  </scstep>
  <scstep>
   <time name="diag">   10.42   10.47</time>
   <time name="diis">   28.16   28.22</time>
   <time name="orth">    2.87    2.97</time>
   <time name="total">   44.20   44.71</time>
   <energy>
    <i name="e_fr_energy">   -222.30897801 </i>
    <i name="e_wo_entrp">   -220.23474204 </i>
    <i name="e_0_energy">   -221.27186003 </i>
   </energy>
  </scstep>
  <scstep>
   <time name="diag">   10.31   10.44</time>
   <time name="diis">   28.24   28.52</time>
   <time name="orth">    2.87    2.88</time>
   <time name="total">   43.85   44.29</time>
   <energy>
    <i name="e_fr_energy">   -222.30821907 </i>
    <i name="e_wo_entrp">   -220.23465924 </i>
    <i name="e_0_energy">   -221.27143916 </i>
   </energy>
  </scstep>
  <scstep>
   <time name="diag">   10.89   11.00</time>
   <time name="diis">   29.40   29.64</time>
   <time name="orth">    2.91    2.93</time>
   <time name="total">   47.44   47.83</time>
   <energy>
    <i name="e_fr_energy">   -222.30800025 </i>
    <i name="e_wo_entrp">   -220.23430183 </i>
    <i name="e_0_energy">   -221.27115104 </i>
   </energy>
  </scstep>
  <scstep>
   <time name="diag">   10.49   10.51</time>
   <time name="diis">   28.64   28.62</time>
   <time name="orth">    2.88    2.90</time>
   <time name="total">   44.37   44.40</time>
   <energy>
    <i name="e_fr_energy">   -222.30791022 </i>
    <i name="e_wo_entrp">   -220.23475817 </i>
    <i name="e_0_energy">   -221.27133419 </i>
   </energy>
  </scstep>
  <scstep>
   <time name="diag">   10.30   10.30</time>
   <time name="diis">   28.35   28.33</time>
   <time name="orth">    2.95    2.94</time>
   <time name="total">   44.02   44.08</time>
   <energy>
    <i name="e_fr_energy">   -222.30789797 </i>
    <i name="e_wo_entrp">   -220.23483198 </i>
    <i name="e_0_energy">   -221.27136498 </i>
   </energy>
  </scstep>
  <scstep>
   <time name="diag">   10.35   10.37</time>
   <time name="diis">   28.87   28.89</time>
   <time name="orth">    2.87    2.91</time>
   <time name="total">   44.44   44.53</time>
   <energy>
    <i name="e_fr_energy">   -222.30794484 </i>
    <i name="e_wo_entrp">   -220.23479384 </i>
    <i name="e_0_energy">   -221.27136934 </i>
   </energy>
  </scstep>
  <scstep>
   <time name="diag">   10.12   10.32</time>
   <time name="diis">   28.14   28.25</time>
   <time name="orth">    2.88    2.90</time>
   <time name="total">   44.15   44.55</time>
   <energy>
    <i name="e_fr_energy">   -222.30803109 </i>
    <i name="e_wo_entrp">   -220.23468145 </i>
    <i name="e_0_energy">   -221.27135627 </i>
   </energy>
  </scstep>
  <scstep>
   <time name="diag">   10.35   10.35</time>
   <time name="diis">   27.32   27.92</time>
   <time name="orth">    2.83    2.84</time>
   <time name="total">   42.82   43.44</time>
   <energy>
    <i name="e_fr_energy">   -222.30826056 </i>
    <i name="e_wo_entrp">   -220.23459146 </i>
    <i name="e_0_energy">   -221.27142601 </i>
   </energy>
  </scstep>
  <scstep>
   <time name="diag">   10.53   10.73</time>
   <time name="diis">   28.03   28.14</time>
   <time name="orth">    2.89    2.89</time>
   <time name="total">   44.22   44.84</time>
   <energy>
    <i name="e_fr_energy">   -222.30832252 </i>
    <i name="e_wo_entrp">   -220.23471156 </i>
    <i name="e_0_energy">   -221.27151704 </i>
   </energy>
  </scstep>
  <scstep>
   <time name="diag">   10.76   10.76</time>
   <time name="diis">   27.94   27.94</time>
   <time name="orth">    2.92    2.95</time>
   <time name="total">   44.00   44.05</time>
   <energy>
    <i name="e_fr_energy">   -222.30850375 </i>
    <i name="e_wo_entrp">   -220.23523473 </i>
    <i name="e_0_energy">   -221.27186924 </i>
   </energy>
  </scstep>
  <scstep>
   <time name="diag">   10.24   10.38</time>
   <time name="diis">   24.56   24.66</time>
   <time name="orth">    2.93    2.98</time>
   <time name="total">   40.46   40.78</time>
   <energy>
    <i name="e_fr_energy">   -222.30861193 </i>
    <i name="e_wo_entrp">   -220.23534844 </i>
    <i name="e_0_energy">   -221.27198019 </i>
   </energy>
  </scstep>
  <scstep>
   <time name="diag">   10.44   10.52</time>
   <time name="diis">   21.45   21.97</time>
   <time name="orth">    2.85    2.88</time>
   <time name="total">   37.17   37.81</time>
   <energy>
    <i name="e_fr_energy">   -222.30873538 </i>
    <i name="e_wo_entrp">   -220.23544469 </i>
    <i name="e_0_energy">   -221.27209004 </i>
   </energy>
  </scstep>
  <scstep>
   <time name="diag">   12.08   12.21</time>
   <time name="diis">   19.31   19.56</time>
   <time name="orth">    2.96    2.98</time>
   <time name="total">   37.98   38.41</time>
   <energy>
    <i name="e_fr_energy">   -222.30881078 </i>
    <i name="e_wo_entrp">   -220.23547086 </i>
    <i name="e_0_energy">   -221.27214082 </i>
   </energy>
  </scstep>
  <scstep>
   <time name="diag">   10.28   10.37</time>
   <time name="diis">   19.79   20.08</time>
   <time name="orth">    2.84    2.89</time>
   <time name="total">   35.22   35.71</time>
   <energy>
    <i name="e_fr_energy">   -222.30890282 </i>
    <i name="e_wo_entrp">   -220.23549148 </i>
    <i name="e_0_energy">   -221.27219715 </i>
   </energy>
  </scstep>
  <scstep>
   <time name="diag">   10.91   10.93</time>
   <time name="diis">   18.82   18.92</time>
   <time name="orth">    2.96    2.98</time>
   <time name="total">   36.23   36.43</time>
   <energy>
    <i name="e_fr_energy">   -222.30897614 </i>
    <i name="e_wo_entrp">   -220.23558285 </i>
    <i name="e_0_energy">   -221.27227949 </i>
   </energy>
  </scstep>
  <scstep>
   <time name="diag">   10.66   10.91</time>
   <time name="diis">   17.06   17.23</time>
   <time name="orth">    2.94    2.95</time>
   <time name="total">   33.04   33.51</time>
   <energy>
    <i name="e_fr_energy">   -222.30899789 </i>
    <i name="e_wo_entrp">   -220.23561076 </i>
    <i name="e_0_energy">   -221.27230432 </i>
   </energy>
  </scstep>
  <scstep>
   <time name="diag">   10.36   10.38</time>
   <time name="diis">   16.73   16.89</time>
   <time name="orth">    2.81    2.83</time>
   <time name="total">   32.37   32.63</time>
   <energy>
    <i name="e_fr_energy">   -222.30902046 </i>
    <i name="e_wo_entrp">   -220.23562891 </i>
    <i name="e_0_energy">   -221.27232469 </i>
   </energy>
  </scstep>
  <scstep>
   <time name="diag">   10.34   10.40</time>
   <time name="diis">   14.56   14.85</time>
   <time name="orth">    3.43    3.45</time>
   <time name="total">   30.74   31.12</time>
   <energy>
    <i name="e_fr_energy">   -222.30902735 </i>
    <i name="e_wo_entrp">   -220.23563235 </i>
    <i name="e_0_energy">   -221.27232985 </i>
   </energy>
  </scstep>
  <scstep>
   <time name="diag">   10.40   10.39</time>
   <time name="diis">   14.67   14.66</time>
   <time name="orth">    2.92    2.94</time>
   <time name="total">   31.71   31.72</time>
   <energy>
    <i name="e_fr_energy">   -222.30903286 </i>
    <i name="e_wo_entrp">   -220.23563759 </i>
    <i name="e_0_energy">   -221.27233523 </i>
   </energy>
  </scstep>
  <scstep>
   <time name="diag">   10.27   10.39</time>
   <time name="diis">   14.40   14.47</time>
   <time name="orth">    2.97    3.21</time>
   <time name="total">   30.03   30.47</time>
   <energy>
    <i name="e_fr_energy">   -222.30903634 </i>
    <i name="e_wo_entrp">   -220.23564300 </i>
    <i name="e_0_energy">   -221.27233967 </i>
   </energy>
  </scstep>
  <scstep>
   <time name="diag">   11.77   11.91</time>
   <time name="diis">   12.97   12.97</time>
   <time name="orth">    2.88    2.91</time>
   <time name="total">   29.08   29.71</time>
   <energy>
    <i name="alphaZ">    935.82383185 </i>
    <i name="ewald">  92816.60391968 </i>
    <i name="hartreedc">-120725.58369390 </i>
    <i name="XCdc">    124.57764337 </i>
    <i name="pawpsdc">  32055.10924046 </i>
    <i name="pawaedc"> -31135.85054040 </i>
    <i name="eentropy">     -2.07339325 </i>
    <i name="bandstr">   -698.55216675 </i>
    <i name="atom">  26407.63612164 </i>
    <i name="e_fr_energy">   -222.30903730 </i>
    <i name="e_wo_entrp">   -220.23564405 </i>
    <i name="e_0_energy">   -221.27234068 </i>
   </energy>
  </scstep>
  <structure>
   <crystal>
    <varray name="basis" >
     <v>       8.42164176       0.00000000       0.00000000 </v>
     <v>       4.21082088       7.29335571       0.00000000 </v>
     <v>       0.00000000       0.00000000      21.87624171 </v>
    </varray>
    <i name="volume">   1343.68315334 </i>
    <varray name="rec_basis" >
     <v>       0.11874169      -0.06855555       0.00000000 </v>
     <v>       0.00000000       0.13711110       0.00000000 </v>
     <v>       0.00000000       0.00000000       0.04571169 </v>
    </varray>
   </crystal>
   <varray name="positions" >
    <v>       0.00000000       0.00000000       0.34283768 </v>
    <v>       0.33333333       0.00000000       0.34283768 </v>
    <v>       0.66666667       0.00000000       0.34283768 </v>
    <v>       0.00000000       0.33333333       0.34283768 </v>
    <v>       0.33333333       0.33333333       0.34283768 </v>
    <v>       0.66666667       0.33333333       0.34283768 </v>
    <v>       0.00000000       0.66666667       0.34283768 </v>
    <v>       0.33333333       0.66666667       0.34283768 </v>
    <v>       0.66666667       0.66666667       0.34283768 </v>
    <v>       0.11111111       0.11111111       0.44761256 </v>
    <v>       0.44444444       0.11111111       0.44761256 </v>
    <v>       0.77777778       0.11111111       0.44761256 </v>
    <v>       0.11111111       0.44444444       0.44761256 </v>
    <v>       0.44444444       0.44444444       0.44761256 </v>
    <v>       0.77777778       0.44444444       0.44761256 </v>
    <v>       0.11111111       0.77777778       0.44761256 </v>
    <v>       0.44444444       0.77777778       0.44761256 </v>
    <v>       0.77777778       0.77777778       0.44761256 </v>
    <v>       0.88706171       0.22270836       0.55197431 </v>
    <v>       0.22317109       0.22268400       0.55197526 </v>
    <v>       0.55496162       0.22299928       0.55240074 </v>
    <v>       0.88896641       0.55474178       0.55101925 </v>
    <v>       0.22327025       0.55458533       0.55240215 </v>
    <v>       0.55491142       0.55465699       0.55243798 </v>
    <v>       0.88900367       0.88864281       0.55103160 </v>
    <v>       0.22302540       0.88667432       0.55195033 </v>
    <v>       0.55512154       0.88865425       0.55101056 </v>
    <v>       0.99986853       0.99886464       0.65645076 </v>
    <v>       0.33309637       0.99874989       0.65640106 </v>
    <v>       0.66851218       0.99492351       0.65622665 </v>
    <v>       0.99990558       0.33207826       0.65641379 </v>
    <v>       0.32958538       0.32879713       0.66263379 </v>
    <v>       0.67372077       0.32879151       0.66272622 </v>
    <v>       0.99556726       0.66782838       0.65619516 </v>
    <v>       0.32967796       0.67257302       0.66273802 </v>
    <v>       0.66874887       0.66789261       0.65620526 </v>
    <v>       0.44434811       0.44303213       0.71219407 </v>
    <v>       0.44430597       0.44280093       0.76251615 </v>
   </varray>
  </structure>
  <varray name="forces" >
   <v>      -0.01614552      -0.00825020      -0.04743381 </v>
   <v>       0.01779174      -0.00792449      -0.04717490 </v>
   <v>       0.00136824      -0.00909373      -0.06599345 </v>
   <v>       0.00136794       0.02045923      -0.04683754 </v>
   <v>       0.00317359       0.00280202      -0.04678751 </v>
   <v>      -0.00089173       0.00316697      -0.04654616 </v>
   <v>      -0.00783916       0.00768474      -0.06563166 </v>
   <v>       0.00138405      -0.00101316      -0.04654838 </v>
   <v>       0.01029157       0.00722838      -0.06543045 </v>
   <v>      -0.00171371      -0.00185147      -0.20537018 </v>
   <v>      -0.03705729       0.02650910       0.07793123 </v>
   <v>       0.03468556       0.02577671       0.08018315 </v>
   <v>       0.00466734      -0.04808747       0.07861467 </v>
   <v>      -0.00065977      -0.00150515       0.22691065 </v>
   <v>      -0.01100067      -0.04787611       0.07762677 </v>
   <v>       0.04008057       0.01412318       0.07775434 </v>
   <v>      -0.04510701       0.01287671       0.07615178 </v>
   <v>      -0.00141240      -0.00252778       0.02035295 </v>
   <v>      -0.00006078       0.00277299       0.00086744 </v>
   <v>       0.00043269      -0.00024662       0.00391259 </v>
   <v>      -0.00013904      -0.00294309       0.00460419 </v>
   <v>       0.00050164      -0.00659184       0.00301456 </v>
   <v>      -0.00092787       0.00026804       0.00157391 </v>
   <v>       0.00168092      -0.00143308      -0.00254166 </v>
   <v>       0.00072248       0.00002644      -0.00247726 </v>
   <v>       0.00193060      -0.00050875       0.00017082 </v>
   <v>      -0.00310156       0.00207686       0.00338441 </v>
   <v>       0.00185360       0.00092713      -0.01043809 </v>
   <v>       0.00193598       0.00552617      -0.00683440 </v>
   <v>       0.00185818       0.00470652      -0.00118596 </v>
   <v>       0.00358185      -0.00097603      -0.00972332 </v>
   <v>      -0.00741348      -0.00242770      -0.00670106 </v>
   <v>      -0.00826292       0.00613120      -0.00285150 </v>
   <v>       0.00203124      -0.00300277      -0.00072684 </v>
   <v>       0.00135578      -0.00948373      -0.00257763 </v>
   <v>      -0.00384403      -0.00123031      -0.00395368 </v>
   <v>       0.01000882       0.00954745      -0.01298173 </v>
   <v>       0.00287254       0.00436360       0.01369372 </v>
  </varray>
  <varray name="stress" >
   <v>     -41.50719112       0.04686149       0.10284777 </v>
   <v>       0.04686158     -41.65345183       0.13923411 </v>
   <v>       0.10284772       0.13923400      -0.30393787 </v>
  </varray>
  <energy>
   <i name="e_fr_energy">   -222.30903730 </i>
   <i name="e_wo_entrp">   -221.27234068 </i>
   <i name="e_0_energy">     -2.07339325 </i>
  </energy>
  <time name="totalsc"> 1713.40 1727.88</time>
  <eigenvalues>
   <array>
    <dimension dim="1">band</dimension>
    <dimension dim="2">kpoint</dimension>
    <dimension dim="3">spin</dimension>
    <field>eigene</field>
    <field>occ</field>
    <set>
     <set comment="spin 1">
      <set comment="kpoint 1">
       <r>  -11.1614    1.0000 </r>
       <r>   -7.9210    1.0000 </r>
       <r>   -6.6441    1.0000 </r>
       <r>   -6.0081    1.0000 </r>
       <r>   -5.6726    1.0000 </r>
       <r>   -5.5737    1.0000 </r>
       <r>   -5.5410    1.0000 </r>
       <r>   -5.4717    1.0000 </r>
       <r>   -5.3975    1.0000 </r>
       <r>   -5.3817    1.0000 </r>
       <r>   -5.3542    1.0000 </r>
       <r>   -5.2079    1.0000 </r>
       <r>   -5.0730    1.0000 </r>
       <r>   -5.0604    1.0000 </r>
       <r>   -4.9034    1.0000 </r>
       <r>   -4.8739    1.0000 </r>
       <r>   -4.8640    1.0000 </r>
       <r>   -4.7891    1.0000 </r>
       <r>   -4.6820    1.0000 </r>
       <r>   -4.6718    1.0000 </r>
       <r>   -4.4039    1.0000 </r>
       <r>   -4.3923    1.0000 </r>
       <r>   -4.3813    1.0000 </r>
       <r>   -4.2995    1.0000 </r>
       <r>   -4.2537    1.0000 </r>
       <r>   -4.2321    1.0000 </r>
       <r>   -4.1685    1.0000 </r>
       <r>   -4.1300    1.0000 </r>
       <r>   -4.1192    1.0000 </r>
       <r>   -4.0346    1.0000 </r>
       <r>   -4.0294    1.0000 </r>
       <r>   -4.0280    1.0000 </r>
       <r>   -3.9719    1.0000 </r>
       <r>   -3.9646    1.0000 </r>
       <r>   -3.9287    1.0000 </r>
       <r>   -3.9261    1.0000 </r>
       <r>   -3.9059    1.0000 </r>
       <r>   -3.8989    1.0000 </r>
       <r>   -3.8642    1.0000 </r>
       <r>   -3.7399    1.0000 </r>
       <r>   -3.7352    1.0000 </r>
       <r>   -3.4811    1.0000 </r>
       <r>   -3.3605    1.0000 </r>
       <r>   -3.3587    1.0000 </r>
       <r>   -3.3048    1.0000 </r>
       <r>   -3.3003    1.0000 </r>
       <r>   -3.2827    1.0000 </r>
       <r>   -3.2598    1.0000 </r>
       <r>   -3.1931    1.0000 </r>
       <r>   -3.1835    1.0000 </r>
       <r>   -3.1467    1.0000 </r>
       <r>   -3.1060    1.0000 </r>
       <r>   -3.1031    1.0000 </r>
       <r>   -3.0070    1.0000 </r>
       <r>   -2.9997    1.0000 </r>
       <r>   -2.9612    1.0000 </r>
       <r>   -2.8688    1.0000 </r>
       <r>   -2.8643    1.0000 </r>
       <r>   -2.5025    1.0000 </r>
       <r>   -2.4997    1.0000 </r>
       <r>   -2.4478    1.0000 </r>
       <r>   -2.4206    1.0000 </r>
       <r>   -2.4154    1.0000 </r>
       <r>   -2.4003    1.0000 </r>
       <r>   -2.3589    1.0000 </r>
       <r>   -2.3485    1.0000 </r>
       <r>   -2.3317    1.0000 </r>
       <r>   -2.3071    1.0000 </r>
       <r>   -2.2891    1.0000 </r>
       <r>   -2.2653    1.0000 </r>
       <r>   -2.2267    1.0000 </r>
       <r>   -2.2068    1.0000 </r>
       <r>   -2.1904    1.0000 </r>
       <r>   -2.1774    1.0000 </r>
       <r>   -2.1492    1.0000 </r>
       <r>   -2.1201    1.0000 </r>
       <r>   -2.0808    1.0000 </r>
       <r>   -2.0730    1.0000 </r>
       <r>   -2.0478    1.0000 </r>
       <r>   -2.0289    1.0000 </r>
       <r>   -2.0138    1.0000 </r>
       <r>   -1.9949    1.0000 </r>
       <r>   -1.9476    1.0000 </r>
       <r>   -1.9418    1.0000 </r>
       <r>   -1.9109    1.0000 </r>
       <r>   -1.9021    1.0000 </r>
       <r>   -1.7838    1.0000 </r>
       <r>   -1.7637    1.0000 </r>
       <r>   -1.7628    1.0000 </r>
       <r>   -1.7232    1.0000 </r>
       <r>   -1.7174    1.0000 </r>
       <r>   -1.6940    1.0000 </r>
       <r>   -1.6867    1.0000 </r>
       <r>   -1.6668    1.0000 </r>
       <r>   -1.6412    1.0000 </r>
       <r>   -1.6155    1.0000 </r>
       <r>   -1.5937    1.0000 </r>
       <r>   -1.5883    1.0000 </r>
       <r>   -1.5515    1.0000 </r>
       <r>   -1.4999    1.0000 </r>
       <r>   -1.4529    1.0000 </r>
       <r>   -1.4346    1.0000 </r>
       <r>   -1.4152    1.0000 </r>
       <r>   -1.4032    1.0000 </r>
       <r>   -1.4022    1.0000 </r>
       <r>   -1.3847    1.0000 </r>
       <r>   -1.3451    1.0000 </r>
       <r>   -1.3422    1.0000 </r>
       <r>   -1.3060    1.0000 </r>
       <r>   -1.2513    1.0000 </r>
       <r>   -1.2290    1.0000 </r>
       <r>   -1.0526    1.0000 </r>
       <r>   -1.0130    1.0000 </r>
       <r>   -0.9818    1.0000 </r>
       <r>   -0.9017    1.0000 </r>
       <r>   -0.8961    1.0000 </r>
       <r>   -0.8073    1.0000 </r>
       <r>   -0.8004    1.0000 </r>
       <r>   -0.7890    1.0000 </r>
       <r>   -0.7552    1.0000 </r>
       <r>   -0.7500    1.0000 </r>
       <r>   -0.7241    1.0000 </r>
       <r>   -0.6550    1.0000 </r>
       <r>   -0.6495    1.0000 </r>
       <r>   -0.5957    1.0000 </r>
       <r>   -0.4853    1.0000 </r>
       <r>   -0.4838    1.0000 </r>
       <r>   -0.4034    1.0000 </r>
       <r>   -0.3593    1.0000 </r>
       <r>   -0.3050    1.0000 </r>
       <r>   -0.2956    1.0000 </r>
       <r>   -0.2443    1.0000 </r>
       <r>   -0.2303    1.0000 </r>
       <r>   -0.2161    1.0000 </r>
       <r>   -0.2137    1.0000 </r>
       <r>   -0.1663    1.0000 </r>
       <r>   -0.1540    1.0000 </r>
       <r>   -0.1152    1.0000 </r>
       <r>   -0.0522    1.0000 </r>
       <r>   -0.0363    1.0000 </r>
       <r>   -0.0100    1.0000 </r>
       <r>    0.0172    1.0000 </r>
       <r>    0.0793    1.0000 </r>
       <r>    0.1089    1.0000 </r>
       <r>    0.1111    1.0000 </r>
       <r>    0.1514    1.0000 </r>
       <r>    0.2132    1.0000 </r>
       <r>    0.2180    1.0000 </r>
       <r>    0.2340    1.0000 </r>
       <r>    0.2809    1.0000 </r>
       <r>    0.3096    0.9999 </r>
       <r>    0.3404    0.9999 </r>
       <r>    0.3576    0.9999 </r>
       <r>    0.3765    0.9999 </r>
       <r>    0.4330    0.9998 </r>
       <r>    0.4596    0.9997 </r>
       <r>    0.4608    0.9997 </r>
       <r>    0.4874    0.9996 </r>
       <r>    0.4969    0.9996 </r>
       <r>    0.5402    0.9994 </r>
       <r>    0.5536    0.9993 </r>
       <r>    0.5700    0.9992 </r>
       <r>    0.5941    0.9990 </r>
       <r>    0.6082    0.9988 </r>
       <r>    0.6644    0.9979 </r>
       <r>    0.6676    0.9979 </r>
       <r>    0.6871    0.9974 </r>
       <r>    0.6930    0.9972 </r>
       <r>    0.7165    0.9965 </r>
       <r>    0.7213    0.9963 </r>
       <r>    0.7537    0.9949 </r>
       <r>    0.7579    0.9947 </r>
       <r>    0.7628    0.9945 </r>
       <r>    0.8076    0.9914 </r>
       <r>    0.8470    0.9872 </r>
       <r>    0.8503    0.9868 </r>
       <r>    0.9059    0.9772 </r>
       <r>    0.9195    0.9740 </r>
       <r>    0.9411    0.9679 </r>
       <r>    0.9471    0.9660 </r>
       <r>    0.9862    0.9506 </r>
       <r>    0.9917    0.9479 </r>
       <r>    1.0231    0.9300 </r>
       <r>    1.0346    0.9222 </r>
       <r>    1.0609    0.9010 </r>
       <r>    1.0687    0.8939 </r>
       <r>    1.0825    0.8800 </r>
       <r>    1.0979    0.8628 </r>
       <r>    1.1016    0.8584 </r>
       <r>    1.1638    0.7650 </r>
       <r>    1.2017    0.6902 </r>
       <r>    1.2964    0.4635 </r>
       <r>    1.3048    0.4427 </r>
       <r>    1.3225    0.3997 </r>
       <r>    1.3537    0.3277 </r>
       <r>    1.3597    0.3145 </r>
       <r>    1.3906    0.2521 </r>
       <r>    1.7505    0.0091 </r>
       <r>    1.8174    0.0047 </r>
       <r>    1.9528    0.0012 </r>
       <r>    2.0563    0.0004 </r>
       <r>    2.1992    0.0001 </r>
       <r>    2.2256    0.0001 </r>
       <r>    2.3769    0.0000 </r>
       <r>    3.2646    0.0000 </r>
       <r>    3.2917    0.0000 </r>
       <r>    4.1764    0.0000 </r>
       <r>    4.3144    0.0000 </r>
       <r>    4.4834    0.0000 </r>
       <r>    4.6968    0.0000 </r>
       <r>    4.9956    0.0000 </r>
       <r>    5.0219    0.0000 </r>
       <r>    5.6213    0.0000 </r>
       <r>    5.6912    0.0000 </r>
       <r>    5.9538    0.0000 </r>
       <r>    6.1344    0.0000 </r>
       <r>    6.1808    0.0000 </r>
       <r>    6.4812    0.0000 </r>
       <r>    6.6184    0.0000 </r>
       <r>    6.7093    0.0000 </r>
      </set>
      <set comment="kpoint 2">
       <r>  -11.1614    1.0000 </r>
       <r>   -7.9211    1.0000 </r>
       <r>   -6.6441    1.0000 </r>
       <r>   -6.0081    1.0000 </r>
       <r>   -5.6746    1.0000 </r>
       <r>   -5.5726    1.0000 </r>
       <r>   -5.5399    1.0000 </r>
       <r>   -5.4717    1.0000 </r>
       <r>   -5.3962    1.0000 </r>
       <r>   -5.3805    1.0000 </r>
       <r>   -5.3567    1.0000 </r>
       <r>   -5.2081    1.0000 </r>
       <r>   -5.0726    1.0000 </r>
       <r>   -5.0608    1.0000 </r>
       <r>   -4.9024    1.0000 </r>
       <r>   -4.8738    1.0000 </r>
       <r>   -4.8653    1.0000 </r>
       <r>   -4.7894    1.0000 </r>
       <r>   -4.6831    1.0000 </r>
       <r>   -4.6704    1.0000 </r>
       <r>   -4.4046    1.0000 </r>
       <r>   -4.3916    1.0000 </r>
       <r>   -4.3810    1.0000 </r>
       <r>   -4.2992    1.0000 </r>
       <r>   -4.2543    1.0000 </r>
       <r>   -4.2319    1.0000 </r>
       <r>   -4.1686    1.0000 </r>
       <r>   -4.1299    1.0000 </r>
       <r>   -4.1195    1.0000 </r>
       <r>   -4.0353    1.0000 </r>
       <r>   -4.0300    1.0000 </r>
       <r>   -4.0281    1.0000 </r>
       <r>   -3.9730    1.0000 </r>
       <r>   -3.9654    1.0000 </r>
       <r>   -3.9276    1.0000 </r>
       <r>   -3.9252    1.0000 </r>
       <r>   -3.9048    1.0000 </r>
       <r>   -3.8973    1.0000 </r>
       <r>   -3.8640    1.0000 </r>
       <r>   -3.7411    1.0000 </r>
       <r>   -3.7354    1.0000 </r>
       <r>   -3.4812    1.0000 </r>
       <r>   -3.3606    1.0000 </r>
       <r>   -3.3587    1.0000 </r>
       <r>   -3.3051    1.0000 </r>
       <r>   -3.3005    1.0000 </r>
       <r>   -3.2821    1.0000 </r>
       <r>   -3.2592    1.0000 </r>
       <r>   -3.1929    1.0000 </r>
       <r>   -3.1837    1.0000 </r>
       <r>   -3.1466    1.0000 </r>
       <r>   -3.1066    1.0000 </r>
       <r>   -3.1024    1.0000 </r>
       <r>   -3.0067    1.0000 </r>
       <r>   -3.0002    1.0000 </r>
       <r>   -2.9613    1.0000 </r>
       <r>   -2.8682    1.0000 </r>
       <r>   -2.8646    1.0000 </r>
       <r>   -2.5010    1.0000 </r>
       <r>   -2.5001    1.0000 </r>
       <r>   -2.4474    1.0000 </r>
       <r>   -2.4190    1.0000 </r>
       <r>   -2.4158    1.0000 </r>
       <r>   -2.4007    1.0000 </r>
       <r>   -2.3567    1.0000 </r>
       <r>   -2.3484    1.0000 </r>
       <r>   -2.3335    1.0000 </r>
       <r>   -2.3080    1.0000 </r>
       <r>   -2.2896    1.0000 </r>
       <r>   -2.2651    1.0000 </r>
       <r>   -2.2271    1.0000 </r>
       <r>   -2.2062    1.0000 </r>
       <r>   -2.1901    1.0000 </r>
       <r>   -2.1773    1.0000 </r>
       <r>   -2.1494    1.0000 </r>
       <r>   -2.1184    1.0000 </r>
       <r>   -2.0814    1.0000 </r>
       <r>   -2.0705    1.0000 </r>
       <r>   -2.0468    1.0000 </r>
       <r>   -2.0306    1.0000 </r>
       <r>   -2.0209    1.0000 </r>
       <r>   -1.9977    1.0000 </r>
       <r>   -1.9468    1.0000 </r>
       <r>   -1.9415    1.0000 </r>
       <r>   -1.9062    1.0000 </r>
       <r>   -1.9011    1.0000 </r>
       <r>   -1.7869    1.0000 </r>
       <r>   -1.7630    1.0000 </r>
       <r>   -1.7611    1.0000 </r>
       <r>   -1.7230    1.0000 </r>
       <r>   -1.7182    1.0000 </r>
       <r>   -1.6924    1.0000 </r>
       <r>   -1.6858    1.0000 </r>
       <r>   -1.6704    1.0000 </r>
       <r>   -1.6411    1.0000 </r>
       <r>   -1.6161    1.0000 </r>
       <r>   -1.5940    1.0000 </r>
       <r>   -1.5883    1.0000 </r>
       <r>   -1.5516    1.0000 </r>
       <r>   -1.4970    1.0000 </r>
       <r>   -1.4531    1.0000 </r>
       <r>   -1.4358    1.0000 </r>
       <r>   -1.4129    1.0000 </r>
       <r>   -1.4033    1.0000 </r>
       <r>   -1.4022    1.0000 </r>
       <r>   -1.3857    1.0000 </r>
       <r>   -1.3462    1.0000 </r>
       <r>   -1.3434    1.0000 </r>
       <r>   -1.3081    1.0000 </r>
       <r>   -1.2506    1.0000 </r>
       <r>   -1.2261    1.0000 </r>
       <r>   -1.0516    1.0000 </r>
       <r>   -1.0138    1.0000 </r>
       <r>   -0.9810    1.0000 </r>
       <r>   -0.9013    1.0000 </r>
       <r>   -0.8959    1.0000 </r>
       <r>   -0.8081    1.0000 </r>
       <r>   -0.8012    1.0000 </r>
       <r>   -0.7899    1.0000 </r>
       <r>   -0.7554    1.0000 </r>
       <r>   -0.7510    1.0000 </r>
       <r>   -0.7233    1.0000 </r>
       <r>   -0.6555    1.0000 </r>
       <r>   -0.6501    1.0000 </r>
       <r>   -0.5967    1.0000 </r>
       <r>   -0.4856    1.0000 </r>
       <r>   -0.4834    1.0000 </r>
       <r>   -0.4037    1.0000 </r>
       <r>   -0.3591    1.0000 </r>
       <r>   -0.3049    1.0000 </r>
       <r>   -0.2951    1.0000 </r>
       <r>   -0.2401    1.0000 </r>
       <r>   -0.2340    1.0000 </r>
       <r>   -0.2156    1.0000 </r>
       <r>   -0.2139    1.0000 </r>
       <r>   -0.1666    1.0000 </r>
       <r>   -0.1553    1.0000 </r>
       <r>   -0.1163    1.0000 </r>
       <r>   -0.0527    1.0000 </r>
       <r>   -0.0365    1.0000 </r>
       <r>   -0.0102    1.0000 </r>
       <r>    0.0175    1.0000 </r>
       <r>    0.0784    1.0000 </r>
       <r>    0.1073    1.0000 </r>
       <r>    0.1137    1.0000 </r>
       <r>    0.1515    1.0000 </r>
       <r>    0.2136    1.0000 </r>
       <r>    0.2194    1.0000 </r>
       <r>    0.2348    1.0000 </r>
       <r>    0.2808    1.0000 </r>
       <r>    0.3101    0.9999 </r>
       <r>    0.3401    0.9999 </r>
       <r>    0.3583    0.9999 </r>
       <r>    0.3775    0.9999 </r>
       <r>    0.4328    0.9998 </r>
       <r>    0.4595    0.9997 </r>
       <r>    0.4600    0.9997 </r>
       <r>    0.4865    0.9996 </r>
       <r>    0.4962    0.9996 </r>
       <r>    0.5407    0.9994 </r>
       <r>    0.5523    0.9993 </r>
       <r>    0.5706    0.9992 </r>
       <r>    0.5934    0.9990 </r>
       <r>    0.6089    0.9988 </r>
       <r>    0.6651    0.9979 </r>
       <r>    0.6670    0.9979 </r>
       <r>    0.6870    0.9974 </r>
       <r>    0.6928    0.9972 </r>
       <r>    0.7172    0.9965 </r>
       <r>    0.7225    0.9963 </r>
       <r>    0.7533    0.9950 </r>
       <r>    0.7584    0.9947 </r>
       <r>    0.7646    0.9944 </r>
       <r>    0.8065    0.9914 </r>
       <r>    0.8475    0.9872 </r>
       <r>    0.8508    0.9868 </r>
       <r>    0.9061    0.9772 </r>
       <r>    0.9188    0.9742 </r>
       <r>    0.9417    0.9677 </r>
       <r>    0.9475    0.9659 </r>
       <r>    0.9847    0.9512 </r>
       <r>    0.9907    0.9484 </r>
       <r>    1.0233    0.9299 </r>
       <r>    1.0328    0.9234 </r>
       <r>    1.0607    0.9013 </r>
       <r>    1.0672    0.8953 </r>
       <r>    1.0827    0.8798 </r>
       <r>    1.0988    0.8618 </r>
       <r>    1.1022    0.8577 </r>
       <r>    1.1624    0.7675 </r>
       <r>    1.2048    0.6836 </r>
       <r>    1.2949    0.4674 </r>
       <r>    1.3044    0.4437 </r>
       <r>    1.3249    0.3939 </r>
       <r>    1.3539    0.3273 </r>
       <r>    1.3600    0.3140 </r>
       <r>    1.3916    0.2501 </r>
       <r>    1.7496    0.0092 </r>
       <r>    1.8183    0.0047 </r>
       <r>    1.9538    0.0012 </r>
       <r>    2.0568    0.0004 </r>
       <r>    2.1980    0.0001 </r>
       <r>    2.2263    0.0001 </r>
       <r>    2.3755    0.0000 </r>
       <r>    3.2635    0.0000 </r>
       <r>    3.2927    0.0000 </r>
       <r>    4.1754    0.0000 </r>
       <r>    4.3143    0.0000 </r>
       <r>    4.4860    0.0000 </r>
       <r>    4.6964    0.0000 </r>
       <r>    4.9906    0.0000 </r>
       <r>    5.0265    0.0000 </r>
       <r>    5.6202    0.0000 </r>
       <r>    5.6906    0.0000 </r>
       <r>    5.9542    0.0000 </r>
       <r>    6.1367    0.0000 </r>
       <r>    6.1825    0.0000 </r>
       <r>    6.4775    0.0000 </r>
       <r>    6.6512    0.0000 </r>
       <r>    6.7653    0.0000 </r>
      </set>
      <set comment="kpoint 3">
       <r>  -11.1614    1.0000 </r>
       <r>   -7.9211    1.0000 </r>
       <r>   -6.6441    1.0000 </r>
       <r>   -6.0081    1.0000 </r>
       <r>   -5.6739    1.0000 </r>
       <r>   -5.5730    1.0000 </r>
       <r>   -5.5403    1.0000 </r>
       <r>   -5.4717    1.0000 </r>
       <r>   -5.3967    1.0000 </r>
       <r>   -5.3809    1.0000 </r>
       <r>   -5.3558    1.0000 </r>
       <r>   -5.2080    1.0000 </r>
       <r>   -5.0729    1.0000 </r>
       <r>   -5.0604    1.0000 </r>
       <r>   -4.9028    1.0000 </r>
       <r>   -4.8739    1.0000 </r>
       <r>   -4.8646    1.0000 </r>
       <r>   -4.7893    1.0000 </r>
       <r>   -4.6829    1.0000 </r>
       <r>   -4.6707    1.0000 </r>
       <r>   -4.4043    1.0000 </r>
       <r>   -4.3918    1.0000 </r>
       <r>   -4.3812    1.0000 </r>
       <r>   -4.2994    1.0000 </r>
       <r>   -4.2540    1.0000 </r>
       <r>   -4.2320    1.0000 </r>
       <r>   -4.1686    1.0000 </r>
       <r>   -4.1299    1.0000 </r>
       <r>   -4.1195    1.0000 </r>
       <r>   -4.0350    1.0000 </r>
       <r>   -4.0296    1.0000 </r>
       <r>   -4.0280    1.0000 </r>
       <r>   -3.9728    1.0000 </r>
       <r>   -3.9649    1.0000 </r>
       <r>   -3.9279    1.0000 </r>
       <r>   -3.9258    1.0000 </r>
       <r>   -3.9053    1.0000 </r>
       <r>   -3.8979    1.0000 </r>
       <r>   -3.8640    1.0000 </r>
       <r>   -3.7411    1.0000 </r>
       <r>   -3.7348    1.0000 </r>
       <r>   -3.4811    1.0000 </r>
       <r>   -3.3607    1.0000 </r>
       <r>   -3.3587    1.0000 </r>
       <r>   -3.3051    1.0000 </r>
       <r>   -3.3003    1.0000 </r>
       <r>   -3.2823    1.0000 </r>
       <r>   -3.2597    1.0000 </r>
       <r>   -3.1931    1.0000 </r>
       <r>   -3.1834    1.0000 </r>
       <r>   -3.1466    1.0000 </r>
       <r>   -3.1067    1.0000 </r>
       <r>   -3.1025    1.0000 </r>
       <r>   -3.0068    1.0000 </r>
       <r>   -2.9999    1.0000 </r>
       <r>   -2.9613    1.0000 </r>
       <r>   -2.8687    1.0000 </r>
       <r>   -2.8642    1.0000 </r>
       <r>   -2.5020    1.0000 </r>
       <r>   -2.4995    1.0000 </r>
       <r>   -2.4475    1.0000 </r>
       <r>   -2.4196    1.0000 </r>
       <r>   -2.4155    1.0000 </r>
       <r>   -2.4006    1.0000 </r>
       <r>   -2.3575    1.0000 </r>
       <r>   -2.3485    1.0000 </r>
       <r>   -2.3326    1.0000 </r>
       <r>   -2.3079    1.0000 </r>
       <r>   -2.2894    1.0000 </r>
       <r>   -2.2651    1.0000 </r>
       <r>   -2.2271    1.0000 </r>
       <r>   -2.2064    1.0000 </r>
       <r>   -2.1902    1.0000 </r>
       <r>   -2.1774    1.0000 </r>
       <r>   -2.1493    1.0000 </r>
       <r>   -2.1192    1.0000 </r>
       <r>   -2.0809    1.0000 </r>
       <r>   -2.0716    1.0000 </r>
       <r>   -2.0471    1.0000 </r>
       <r>   -2.0299    1.0000 </r>
       <r>   -2.0181    1.0000 </r>
       <r>   -1.9966    1.0000 </r>
       <r>   -1.9481    1.0000 </r>
       <r>   -1.9405    1.0000 </r>
       <r>   -1.9081    1.0000 </r>
       <r>   -1.9016    1.0000 </r>
       <r>   -1.7856    1.0000 </r>
       <r>   -1.7636    1.0000 </r>
       <r>   -1.7615    1.0000 </r>
       <r>   -1.7229    1.0000 </r>
       <r>   -1.7179    1.0000 </r>
       <r>   -1.6929    1.0000 </r>
       <r>   -1.6865    1.0000 </r>
       <r>   -1.6689    1.0000 </r>
       <r>   -1.6413    1.0000 </r>
       <r>   -1.6158    1.0000 </r>
       <r>   -1.5938    1.0000 </r>
       <r>   -1.5883    1.0000 </r>
       <r>   -1.5515    1.0000 </r>
       <r>   -1.4982    1.0000 </r>
       <r>   -1.4532    1.0000 </r>
       <r>   -1.4353    1.0000 </r>
       <r>   -1.4139    1.0000 </r>
       <r>   -1.4033    1.0000 </r>
       <r>   -1.4022    1.0000 </r>
       <r>   -1.3853    1.0000 </r>
       <r>   -1.3462    1.0000 </r>
       <r>   -1.3427    1.0000 </r>
       <r>   -1.3070    1.0000 </r>
       <r>   -1.2508    1.0000 </r>
       <r>   -1.2274    1.0000 </r>
       <r>   -1.0521    1.0000 </r>
       <r>   -1.0130    1.0000 </r>
       <r>   -0.9814    1.0000 </r>
       <r>   -0.9013    1.0000 </r>
       <r>   -0.8960    1.0000 </r>
       <r>   -0.8076    1.0000 </r>
       <r>   -0.8010    1.0000 </r>
       <r>   -0.7896    1.0000 </r>
       <r>   -0.7555    1.0000 </r>
       <r>   -0.7510    1.0000 </r>
       <r>   -0.7233    1.0000 </r>
       <r>   -0.6555    1.0000 </r>
       <r>   -0.6497    1.0000 </r>
       <r>   -0.5964    1.0000 </r>
       <r>   -0.4857    1.0000 </r>
       <r>   -0.4833    1.0000 </r>
       <r>   -0.4035    1.0000 </r>
       <r>   -0.3593    1.0000 </r>
       <r>   -0.3049    1.0000 </r>
       <r>   -0.2953    1.0000 </r>
       <r>   -0.2422    1.0000 </r>
       <r>   -0.2320    1.0000 </r>
       <r>   -0.2160    1.0000 </r>
       <r>   -0.2136    1.0000 </r>
       <r>   -0.1665    1.0000 </r>
       <r>   -0.1547    1.0000 </r>
       <r>   -0.1160    1.0000 </r>
       <r>   -0.0524    1.0000 </r>
       <r>   -0.0366    1.0000 </r>
       <r>   -0.0099    1.0000 </r>
       <r>    0.0173    1.0000 </r>
       <r>    0.0789    1.0000 </r>
       <r>    0.1077    1.0000 </r>
       <r>    0.1130    1.0000 </r>
       <r>    0.1513    1.0000 </r>
       <r>    0.2133    1.0000 </r>
       <r>    0.2186    1.0000 </r>
       <r>    0.2343    1.0000 </r>
       <r>    0.2815    1.0000 </r>
       <r>    0.3099    0.9999 </r>
       <r>    0.3404    0.9999 </r>
       <r>    0.3579    0.9999 </r>
       <r>    0.3769    0.9999 </r>
       <r>    0.4329    0.9998 </r>
       <r>    0.4592    0.9997 </r>
       <r>    0.4605    0.9997 </r>
       <r>    0.4869    0.9996 </r>
       <r>    0.4965    0.9996 </r>
       <r>    0.5406    0.9994 </r>
       <r>    0.5528    0.9993 </r>
       <r>    0.5705    0.9992 </r>
       <r>    0.5937    0.9990 </r>
       <r>    0.6088    0.9988 </r>
       <r>    0.6649    0.9979 </r>
       <r>    0.6672    0.9979 </r>
       <r>    0.6870    0.9974 </r>
       <r>    0.6930    0.9972 </r>
       <r>    0.7167    0.9965 </r>
       <r>    0.7220    0.9963 </r>
       <r>    0.7535    0.9949 </r>
       <r>    0.7582    0.9947 </r>
       <r>    0.7638    0.9944 </r>
       <r>    0.8068    0.9914 </r>
       <r>    0.8473    0.9872 </r>
       <r>    0.8507    0.9868 </r>
       <r>    0.9060    0.9772 </r>
       <r>    0.9190    0.9741 </r>
       <r>    0.9415    0.9678 </r>
       <r>    0.9473    0.9660 </r>
       <r>    0.9853    0.9510 </r>
       <r>    0.9910    0.9482 </r>
       <r>    1.0232    0.9300 </r>
       <r>    1.0335    0.9230 </r>
       <r>    1.0608    0.9011 </r>
       <r>    1.0678    0.8948 </r>
       <r>    1.0826    0.8799 </r>
       <r>    1.0984    0.8623 </r>
       <r>    1.1020    0.8579 </r>
       <r>    1.1629    0.7665 </r>
       <r>    1.2037    0.6859 </r>
       <r>    1.2954    0.4660 </r>
       <r>    1.3046    0.4433 </r>
       <r>    1.3239    0.3963 </r>
       <r>    1.3538    0.3274 </r>
       <r>    1.3599    0.3140 </r>
       <r>    1.3911    0.2510 </r>
       <r>    1.7500    0.0092 </r>
       <r>    1.8180    0.0047 </r>
       <r>    1.9534    0.0012 </r>
       <r>    2.0565    0.0004 </r>
       <r>    2.1985    0.0001 </r>
       <r>    2.2259    0.0001 </r>
       <r>    2.3762    0.0000 </r>
       <r>    3.2635    0.0000 </r>
       <r>    3.2927    0.0000 </r>
       <r>    4.1758    0.0000 </r>
       <r>    4.3144    0.0000 </r>
       <r>    4.4849    0.0000 </r>
       <r>    4.6965    0.0000 </r>
       <r>    4.9925    0.0000 </r>
       <r>    5.0248    0.0000 </r>
       <r>    5.6208    0.0000 </r>
       <r>    5.6910    0.0000 </r>
       <r>    5.9536    0.0000 </r>
       <r>    6.1368    0.0000 </r>
       <r>    6.1819    0.0000 </r>
       <r>    6.4710    0.0000 </r>
       <r>    6.6504    0.0000 </r>
       <r>    6.6999    0.0000 </r>
      </set>
      <set comment="kpoint 4">
       <r>  -11.1567    1.0000 </r>
       <r>   -7.7681    1.0000 </r>
       <r>   -6.5080    1.0000 </r>
       <r>   -6.0505    1.0000 </r>
       <r>   -5.9378    1.0000 </r>
       <r>   -5.8234    1.0000 </r>
       <r>   -5.4188    1.0000 </r>
       <r>   -5.3277    1.0000 </r>
       <r>   -5.2753    1.0000 </r>
       <r>   -5.2493    1.0000 </r>
       <r>   -5.2159    1.0000 </r>
       <r>   -5.1801    1.0000 </r>
       <r>   -5.0808    1.0000 </r>
       <r>   -4.9775    1.0000 </r>
       <r>   -4.9502    1.0000 </r>
       <r>   -4.8741    1.0000 </r>
       <r>   -4.7951    1.0000 </r>
       <r>   -4.7216    1.0000 </r>
       <r>   -4.6516    1.0000 </r>
       <r>   -4.5656    1.0000 </r>
       <r>   -4.4500    1.0000 </r>
       <r>   -4.3862    1.0000 </r>
       <r>   -4.3476    1.0000 </r>
       <r>   -4.2895    1.0000 </r>
       <r>   -4.2724    1.0000 </r>
       <r>   -4.2047    1.0000 </r>
       <r>   -4.1986    1.0000 </r>
       <r>   -4.1538    1.0000 </r>
       <r>   -4.1328    1.0000 </r>
       <r>   -4.1198    1.0000 </r>
       <r>   -4.0888    1.0000 </r>
       <r>   -4.0508    1.0000 </r>
       <r>   -4.0370    1.0000 </r>
       <r>   -4.0026    1.0000 </r>
       <r>   -3.9454    1.0000 </r>
       <r>   -3.9089    1.0000 </r>
       <r>   -3.7692    1.0000 </r>
       <r>   -3.7485    1.0000 </r>
       <r>   -3.7213    1.0000 </r>
       <r>   -3.7029    1.0000 </r>
       <r>   -3.6499    1.0000 </r>
       <r>   -3.5063    1.0000 </r>
       <r>   -3.4570    1.0000 </r>
       <r>   -3.4137    1.0000 </r>
       <r>   -3.3908    1.0000 </r>
       <r>   -3.3536    1.0000 </r>
       <r>   -3.3297    1.0000 </r>
       <r>   -3.2887    1.0000 </r>
       <r>   -3.2180    1.0000 </r>
       <r>   -3.1913    1.0000 </r>
       <r>   -3.1556    1.0000 </r>
       <r>   -3.1131    1.0000 </r>
       <r>   -3.0506    1.0000 </r>
       <r>   -3.0040    1.0000 </r>
       <r>   -2.9832    1.0000 </r>
       <r>   -2.9333    1.0000 </r>
       <r>   -2.8860    1.0000 </r>
       <r>   -2.8633    1.0000 </r>
       <r>   -2.7392    1.0000 </r>
       <r>   -2.7260    1.0000 </r>
       <r>   -2.5740    1.0000 </r>
       <r>   -2.5521    1.0000 </r>
       <r>   -2.5358    1.0000 </r>
       <r>   -2.5010    1.0000 </r>
       <r>   -2.4656    1.0000 </r>
       <r>   -2.4578    1.0000 </r>
       <r>   -2.4224    1.0000 </r>
       <r>   -2.3831    1.0000 </r>
       <r>   -2.3653    1.0000 </r>
       <r>   -2.3062    1.0000 </r>
       <r>   -2.2687    1.0000 </r>
       <r>   -2.2569    1.0000 </r>
       <r>   -2.2403    1.0000 </r>
       <r>   -2.2258    1.0000 </r>
       <r>   -2.2092    1.0000 </r>
       <r>   -2.1785    1.0000 </r>
       <r>   -2.1470    1.0000 </r>
       <r>   -2.0417    1.0000 </r>
       <r>   -2.0250    1.0000 </r>
       <r>   -1.9742    1.0000 </r>
       <r>   -1.9640    1.0000 </r>
       <r>   -1.9542    1.0000 </r>
       <r>   -1.9333    1.0000 </r>
       <r>   -1.9173    1.0000 </r>
       <r>   -1.8863    1.0000 </r>
       <r>   -1.8545    1.0000 </r>
       <r>   -1.8412    1.0000 </r>
       <r>   -1.8175    1.0000 </r>
       <r>   -1.7628    1.0000 </r>
       <r>   -1.7463    1.0000 </r>
       <r>   -1.7404    1.0000 </r>
       <r>   -1.7290    1.0000 </r>
       <r>   -1.7138    1.0000 </r>
       <r>   -1.6941    1.0000 </r>
       <r>   -1.6823    1.0000 </r>
       <r>   -1.6408    1.0000 </r>
       <r>   -1.6238    1.0000 </r>
       <r>   -1.6036    1.0000 </r>
       <r>   -1.5799    1.0000 </r>
       <r>   -1.5473    1.0000 </r>
       <r>   -1.5092    1.0000 </r>
       <r>   -1.4943    1.0000 </r>
       <r>   -1.4784    1.0000 </r>
       <r>   -1.4401    1.0000 </r>
       <r>   -1.4197    1.0000 </r>
       <r>   -1.4060    1.0000 </r>
       <r>   -1.3514    1.0000 </r>
       <r>   -1.3387    1.0000 </r>
       <r>   -1.3193    1.0000 </r>
       <r>   -1.2913    1.0000 </r>
       <r>   -1.2429    1.0000 </r>
       <r>   -1.2213    1.0000 </r>
       <r>   -1.1578    1.0000 </r>
       <r>   -1.0953    1.0000 </r>
       <r>   -1.0790    1.0000 </r>
       <r>   -1.0325    1.0000 </r>
       <r>   -1.0081    1.0000 </r>
       <r>   -0.8685    1.0000 </r>
       <r>   -0.8334    1.0000 </r>
       <r>   -0.8070    1.0000 </r>
       <r>   -0.7690    1.0000 </r>
       <r>   -0.7495    1.0000 </r>
       <r>   -0.7355    1.0000 </r>
       <r>   -0.6823    1.0000 </r>
       <r>   -0.5962    1.0000 </r>
       <r>   -0.5572    1.0000 </r>
       <r>   -0.5289    1.0000 </r>
       <r>   -0.4784    1.0000 </r>
       <r>   -0.4237    1.0000 </r>
       <r>   -0.3717    1.0000 </r>
       <r>   -0.3498    1.0000 </r>
       <r>   -0.3380    1.0000 </r>
       <r>   -0.3068    1.0000 </r>
       <r>   -0.2967    1.0000 </r>
       <r>   -0.2544    1.0000 </r>
       <r>   -0.2383    1.0000 </r>
       <r>   -0.1784    1.0000 </r>
       <r>   -0.1181    1.0000 </r>
       <r>   -0.0981    1.0000 </r>
       <r>   -0.0474    1.0000 </r>
       <r>   -0.0271    1.0000 </r>
       <r>   -0.0084    1.0000 </r>
       <r>    0.0165    1.0000 </r>
       <r>    0.0453    1.0000 </r>
       <r>    0.0825    1.0000 </r>
       <r>    0.1072    1.0000 </r>
       <r>    0.1259    1.0000 </r>
       <r>    0.1513    1.0000 </r>
       <r>    0.1626    1.0000 </r>
       <r>    0.2005    1.0000 </r>
       <r>    0.2413    1.0000 </r>
       <r>    0.2745    1.0000 </r>
       <r>    0.2822    1.0000 </r>
       <r>    0.3263    0.9999 </r>
       <r>    0.3492    0.9999 </r>
       <r>    0.3592    0.9999 </r>
       <r>    0.4234    0.9998 </r>
       <r>    0.4675    0.9997 </r>
       <r>    0.5231    0.9995 </r>
       <r>    0.5341    0.9994 </r>
       <r>    0.5789    0.9991 </r>
       <r>    0.6181    0.9987 </r>
       <r>    0.6570    0.9981 </r>
       <r>    0.6997    0.9970 </r>
       <r>    0.7096    0.9967 </r>
       <r>    0.7389    0.9956 </r>
       <r>    0.7659    0.9943 </r>
       <r>    0.8262    0.9896 </r>
       <r>    0.8465    0.9873 </r>
       <r>    0.8689    0.9842 </r>
       <r>    0.9163    0.9748 </r>
       <r>    0.9274    0.9719 </r>
       <r>    0.9492    0.9653 </r>
       <r>    0.9643    0.9599 </r>
       <r>    0.9956    0.9459 </r>
       <r>    1.0369    0.9205 </r>
       <r>    1.0448    0.9145 </r>
       <r>    1.0820    0.8806 </r>
       <r>    1.0984    0.8622 </r>
       <r>    1.1308    0.8191 </r>
       <r>    1.1475    0.7930 </r>
       <r>    1.1680    0.7573 </r>
       <r>    1.1809    0.7328 </r>
       <r>    1.2253    0.6377 </r>
       <r>    1.2500    0.5789 </r>
       <r>    1.2641    0.5441 </r>
       <r>    1.2983    0.4589 </r>
       <r>    1.3203    0.4049 </r>
       <r>    1.3281    0.3863 </r>
       <r>    1.3562    0.3221 </r>
       <r>    1.4230    0.1960 </r>
       <r>    1.4585    0.1459 </r>
       <r>    1.4960    0.1051 </r>
       <r>    1.5210    0.0838 </r>
       <r>    1.5826    0.0471 </r>
       <r>    1.6427    0.0264 </r>
       <r>    1.7401    0.0101 </r>
       <r>    1.7759    0.0071 </r>
       <r>    1.8269    0.0043 </r>
       <r>    2.1280    0.0002 </r>
       <r>    2.2829    0.0000 </r>
       <r>    2.5643    0.0000 </r>
       <r>    2.8603    0.0000 </r>
       <r>    2.9194    0.0000 </r>
       <r>    3.1981    0.0000 </r>
       <r>    3.3562    0.0000 </r>
       <r>    3.9743    0.0000 </r>
       <r>    4.2284    0.0000 </r>
       <r>    4.5236    0.0000 </r>
       <r>    4.6951    0.0000 </r>
       <r>    4.9217    0.0000 </r>
       <r>    5.1717    0.0000 </r>
       <r>    5.2448    0.0000 </r>
       <r>    5.3923    0.0000 </r>
       <r>    5.6767    0.0000 </r>
       <r>    5.8456    0.0000 </r>
       <r>    6.1419    0.0000 </r>
       <r>    6.1977    0.0000 </r>
       <r>    6.4118    0.0000 </r>
       <r>    6.5600    0.0000 </r>
      </set>
      <set comment="kpoint 5">
       <r>  -11.1567    1.0000 </r>
       <r>   -7.7681    1.0000 </r>
       <r>   -6.5080    1.0000 </r>
       <r>   -6.0498    1.0000 </r>
       <r>   -5.9381    1.0000 </r>
       <r>   -5.8245    1.0000 </r>
       <r>   -5.4181    1.0000 </r>
       <r>   -5.3276    1.0000 </r>
       <r>   -5.2746    1.0000 </r>
       <r>   -5.2488    1.0000 </r>
       <r>   -5.2166    1.0000 </r>
       <r>   -5.1806    1.0000 </r>
       <r>   -5.0810    1.0000 </r>
       <r>   -4.9777    1.0000 </r>
       <r>   -4.9505    1.0000 </r>
       <r>   -4.8729    1.0000 </r>
       <r>   -4.7950    1.0000 </r>
       <r>   -4.7222    1.0000 </r>
       <r>   -4.6523    1.0000 </r>
       <r>   -4.5654    1.0000 </r>
       <r>   -4.4502    1.0000 </r>
       <r>   -4.3855    1.0000 </r>
       <r>   -4.3465    1.0000 </r>
       <r>   -4.2908    1.0000 </r>
       <r>   -4.2724    1.0000 </r>
       <r>   -4.2057    1.0000 </r>
       <r>   -4.1987    1.0000 </r>
       <r>   -4.1535    1.0000 </r>
       <r>   -4.1326    1.0000 </r>
       <r>   -4.1190    1.0000 </r>
       <r>   -4.0895    1.0000 </r>
       <r>   -4.0501    1.0000 </r>
       <r>   -4.0362    1.0000 </r>
       <r>   -4.0013    1.0000 </r>
       <r>   -3.9473    1.0000 </r>
       <r>   -3.9091    1.0000 </r>
       <r>   -3.7686    1.0000 </r>
       <r>   -3.7489    1.0000 </r>
       <r>   -3.7212    1.0000 </r>
       <r>   -3.7024    1.0000 </r>
       <r>   -3.6509    1.0000 </r>
       <r>   -3.5063    1.0000 </r>
       <r>   -3.4570    1.0000 </r>
       <r>   -3.4142    1.0000 </r>
       <r>   -3.3895    1.0000 </r>
       <r>   -3.3532    1.0000 </r>
[...]
       <r>    5.9395    0.0000 </r>
       <r>    6.0559    0.0000 </r>
      </set>
     </set>
    </set>
   </array>
  </eigenvalues>
  <separator name="orbital magnetization" >
   <v name="MAGDIPOLOUT">      0.00000000      0.00000000      0.00000000</v>
  </separator>
  <dos>
   <i name="efermi">      1.28180895 </i>
   <total>
    <array>
     <dimension dim="1">gridpoints</dimension>
     <dimension dim="2">spin</dimension>
     <field>energy</field>
     <field>total</field>
     <field>integrated</field>
     <set>
      <set comment="spin 1">
       <r>   -12.1614     0.0000     0.0000 </r>
       <r>   -12.0949     0.0000     0.0000 </r>
       <r>   -12.0283     0.0000     0.0000 </r>
       <r>   -11.9618     0.0092     0.0006 </r>
       <r>   -11.8952     0.0087     0.0012 </r>
       <r>   -11.8287     0.0168     0.0023 </r>
       <r>   -11.7622     0.0327     0.0045 </r>
       <r>   -11.6956     0.0633     0.0087 </r>
       <r>   -11.6291     0.1224     0.0168 </r>
       <r>   -11.5625     0.2353     0.0325 </r>
       <r>   -11.4960     0.4472     0.0622 </r>
       <r>   -11.4295     0.8322     0.1176 </r>
       <r>   -11.3629     1.4896     0.2167 </r>
       <r>   -11.2964     2.4896     0.3824 </r>
       <r>   -11.2298     3.7197     0.6299 </r>
       <r>   -11.1633     4.7217     0.9441 </r>
       <r>   -11.0968     4.8941     1.2698 </r>
       <r>   -11.0302     4.1148     1.5436 </r>
       <r>   -10.9637     2.8930     1.7360 </r>
       <r>   -10.8971     1.7877     1.8550 </r>
       <r>   -10.8306     1.0179     1.9227 </r>
       <r>   -10.7640     0.5528     1.9595 </r>
       <r>   -10.6975     0.2925     1.9790 </r>
       <r>   -10.6310     0.1526     1.9891 </r>
       <r>   -10.5644     0.0791     1.9944 </r>
       <r>   -10.4979     0.0408     1.9971 </r>
       <r>   -10.4313     0.0210     1.9985 </r>
       <r>   -10.3648     0.0108     1.9992 </r>
       <r>   -10.2983     0.0000     2.0000 </r>
       <r>   -10.2317     0.0000     2.0000 </r>
       <r>   -10.1652     0.0000     2.0000 </r>
       <r>   -10.0986     0.0000     2.0000 </r>
       <r>   -10.0321     0.0000     2.0000 </r>
       <r>    -9.9656     0.0000     2.0000 </r>
       <r>    -9.8990     0.0000     2.0000 </r>
       <r>    -9.8325     0.0000     2.0000 </r>
       <r>    -9.7659     0.0000     2.0000 </r>
       <r>    -9.6994     0.0000     2.0000 </r>
       <r>    -9.6329     0.0000     2.0000 </r>
       <r>    -9.5663     0.0000     2.0000 </r>
       <r>    -9.4998     0.0000     2.0000 </r>
       <r>    -9.4332     0.0000     2.0000 </r>
       <r>    -9.3667     0.0000     2.0000 </r>
       <r>    -9.3002     0.0000     2.0000 </r>
       <r>    -9.2336     0.0000     2.0000 </r>
       <r>    -9.1671     0.0000     2.0000 </r>
       <r>    -9.1005     0.0000     2.0000 </r>
       <r>    -9.0340     0.0000     2.0000 </r>
       <r>    -8.9675     0.0000     2.0000 </r>
       <r>    -8.9009     0.0000     2.0000 </r>
       <r>    -8.8344     0.0000     2.0000 </r>
       <r>    -8.7678     0.0004     2.0000 </r>
       <r>    -8.7013     0.0007     2.0001 </r>
       <r>    -8.6348     0.0010     2.0001 </r>
       <r>    -8.5682     0.0035     2.0004 </r>
       <r>    -8.5017     0.0053     2.0007 </r>
       <r>    -8.4351     0.0112     2.0015 </r>
       <r>    -8.3686     0.0206     2.0028 </r>
       <r>    -8.3021     0.0406     2.0055 </r>
       <r>    -8.2355     0.0775     2.0107 </r>
       <r>    -8.1690     0.1447     2.0203 </r>
       <r>    -8.1024     0.2630     2.0378 </r>
       <r>    -8.0359     0.4537     2.0680 </r>
       <r>    -7.9694     0.7232     2.1161 </r>
       <r>    -7.9028     1.0459     2.1857 </r>
       <r>    -7.8363     1.3640     2.2765 </r>
       <r>    -7.7697     1.6236     2.3845 </r>
       <r>    -7.7032     1.7964     2.5041 </r>
       <r>    -7.6367     1.8956     2.6302 </r>
       <r>    -7.5701     1.9639     2.7609 </r>
       <r>    -7.5036     2.0416     2.8967 </r>
       <r>    -7.4370     2.1171     3.0376 </r>
       <r>    -7.3705     2.1444     3.1803 </r>
       <r>    -7.3040     2.1218     3.3215 </r>
       <r>    -7.2374     2.1005     3.4612 </r>
       <r>    -7.1709     2.1215     3.6024 </r>
       <r>    -7.1043     2.2010     3.7489 </r>
       <r>    -7.0378     2.3212     3.9034 </r>
       <r>    -6.9713     2.4296     4.0651 </r>
       <r>    -6.9047     2.5021     4.2317 </r>
       <r>    -6.8382     2.5827     4.4036 </r>
       <r>    -6.7716     2.7419     4.5861 </r>
       <r>    -6.7051     3.0335     4.7880 </r>
       <r>    -6.6386     3.4821     5.0198 </r>
       <r>    -6.5720     4.0344     5.2883 </r>
       <r>    -6.5055     4.5639     5.5920 </r>
       <r>    -6.4389     4.9523     5.9216 </r>
       <r>    -6.3724     5.2099     6.2684 </r>
       <r>    -6.3059     5.4615     6.6318 </r>
       <r>    -6.2393     5.8170     7.0190 </r>
       <r>    -6.1728     6.3050     7.4386 </r>
       <r>    -6.1062     6.9477     7.9011 </r>
       <r>    -6.0397     7.7751     8.4184 </r>
       <r>    -5.9732     8.6503     8.9942 </r>
       <r>    -5.9066     9.3176     9.6142 </r>
       <r>    -5.8401     9.5415    10.2492 </r>
       <r>    -5.7735     9.3132    10.8690 </r>
       <r>    -5.7070     8.9177    11.4627 </r>
       <r>    -5.6405     8.8191    12.0497 </r>
       <r>    -5.5739     9.3488    12.6719 </r>
       <r>    -5.5074    10.5953    13.3771 </r>
       <r>    -5.4408    12.4884    14.2082 </r>
       <r>    -5.3743    14.8434    15.1962 </r>
       <r>    -5.3078    17.4132    16.3550 </r>
       <r>    -5.2412    20.0181    17.6872 </r>
       <r>    -5.1747    22.6027    19.1915 </r>
       <r>    -5.1081    25.1394    20.8647 </r>
       <r>    -5.0416    27.5533    22.6985 </r>
       <r>    -4.9751    29.6254    24.6702 </r>
       <r>    -4.9085    31.1808    26.7451 </r>
       <r>    -4.8420    32.2724    28.8926 </r>
       <r>    -4.7754    33.1541    31.0988 </r>
       <r>    -4.7089    34.2288    33.3767 </r>
       <r>    -4.6424    35.8347    35.7614 </r>
       <r>    -4.5758    38.0253    38.2921 </r>
       <r>    -4.5093    40.5648    40.9919 </r>
       <r>    -4.4427    43.1492    43.8636 </r>
       <r>    -4.3762    45.5041    46.8925 </r>
       <r>    -4.3097    47.3783    50.0456 </r>
       <r>    -4.2431    48.4606    53.2713 </r>
       <r>    -4.1766    48.5899    56.5056 </r>
       <r>    -4.1100    47.8907    59.6932 </r>
       <r>    -4.0435    46.7213    62.8032 </r>
       <r>    -3.9770    45.3040    65.8189 </r>
       <r>    -3.9104    43.5778    68.7196 </r>
       <r>    -3.8439    41.5459    71.4851 </r>
       <r>    -3.7773    39.5573    74.1184 </r>
       <r>    -3.7108    38.1204    76.6562 </r>
       <r>    -3.6443    37.6091    79.1603 </r>
       <r>    -3.5777    38.2561    81.7071 </r>
       <r>    -3.5112    40.0049    84.3708 </r>
       <r>    -3.4446    42.4647    87.1979 </r>
       <r>    -3.3781    45.0161    90.1952 </r>
       <r>    -3.3116    47.1032    93.3311 </r>
       <r>    -3.2450    48.4891    96.5585 </r>
       <r>    -3.1785    49.2415    99.8370 </r>
       <r>    -3.1119    49.6037   103.1390 </r>
       <r>    -3.0454    49.7931   106.4537 </r>
       <r>    -2.9788    49.9231   109.7765 </r>
       <r>    -2.9123    49.8207   113.0927 </r>
       <r>    -2.8458    49.1864   116.3667 </r>
       <r>    -2.7792    48.0188   119.5626 </r>
       <r>    -2.7127    46.9054   122.6849 </r>
       <r>    -2.6461    46.7551   125.7976 </r>
       <r>    -2.5796    48.1336   129.0018 </r>
       <r>    -2.5131    50.7067   132.3776 </r>
       <r>    -2.4465    53.7768   135.9574 </r>
       <r>    -2.3800    56.9484   139.7487 </r>
       <r>    -2.3134    60.0972   143.7490 </r>
       <r>    -2.2469    62.8420   147.9320 </r>
       <r>    -2.1804    64.8998   152.2522 </r>
       <r>    -2.1138    66.6435   156.6881 </r>
       <r>    -2.0473    68.7739   161.2667 </r>
       <r>    -1.9807    71.4832   166.0244 </r>
       <r>    -1.9142    74.1186   170.9578 </r>
       <r>    -1.8477    76.0610   176.0199 </r>
       <r>    -1.7811    77.3328   181.1666 </r>
       <r>    -1.7146    78.1391   186.3681 </r>
       <r>    -1.6480    78.4068   191.5870 </r>
       <r>    -1.5815    77.8149   196.7663 </r>
       <r>    -1.5150    75.8884   201.8178 </r>
       <r>    -1.4484    72.2657   206.6288 </r>
       <r>    -1.3819    67.1825   211.1015 </r>
       <r>    -1.3153    61.4649   215.1931 </r>
       <r>    -1.2488    56.1028   218.9280 </r>
       <r>    -1.1823    51.8738   222.3821 </r>
       <r>    -1.1157    49.3048   225.6657 </r>
       <r>    -1.0492    48.6065   228.9024 </r>
       <r>    -0.9826    49.6197   232.2059 </r>
       <r>    -0.9161    51.9774   235.6675 </r>
       <r>    -0.8496    55.0867   239.3351 </r>
       <r>    -0.7830    57.7809   243.1829 </r>
       <r>    -0.7165    58.7639   247.0955 </r>
       <r>    -0.6499    57.6334   250.9332 </r>
       <r>    -0.5834    55.3920   254.6216 </r>
       <r>    -0.5169    53.4257   258.1782 </r>
       <r>    -0.4503    52.4532   261.6700 </r>
       <r>    -0.3838    52.4695   265.1627 </r>
       <r>    -0.3172    53.1054   268.6975 </r>
       <r>    -0.2507    53.9889   272.2911 </r>
       <r>    -0.1842    55.0852   275.9578 </r>
       <r>    -0.1176    56.6723   279.7302 </r>
       <r>    -0.0511    58.7556   283.6413 </r>
       <r>     0.0155    60.9087   287.6967 </r>
       <r>     0.0820    62.6108   291.8654 </r>
       <r>     0.1485    63.4070   296.0865 </r>
       <r>     0.2151    62.8592   300.2706 </r>
       <r>     0.2816    60.8429   304.3207 </r>
       <r>     0.3482    57.9088   308.1755 </r>
       <r>     0.4147    55.1641   311.8475 </r>
       <r>     0.4812    53.5170   315.4103 </r>
       <r>     0.5478    53.0739   318.9437 </r>
       <r>     0.6143    53.3650   322.4961 </r>
       <r>     0.6809    54.0272   326.0923 </r>
       <r>     0.7474    55.1292   329.7628 </r>
       <r>     0.8139    57.1483   333.5675 </r>
       <r>     0.8805    60.3237   337.5832 </r>
       <r>     0.9470    64.1130   341.8519 </r>
       <r>     1.0136    67.5774   346.3507 </r>
       <r>     1.0801    70.0076   351.0112 </r>
       <r>     1.1466    70.9633   355.7348 </r>
       <r>     1.2132    70.0726   360.3985 </r>
       <r>     1.2797    67.1140   364.8658 </r>
       <r>     1.3463    62.3185   369.0141 </r>
       <r>     1.4128    56.4101   372.7695 </r>
       <r>     1.4793    50.0995   376.1048 </r>
       <r>     1.5459    43.5693   379.0056 </r>
       <r>     1.6124    36.9340   381.4644 </r>
       <r>     1.6790    30.7800   383.5144 </r>
       <r>     1.7455    25.7892   385.2328 </r>
       <r>     1.8120    22.0174   386.7000 </r>
       <r>     1.8786    19.1200   387.9744 </r>
       <r>     1.9451    16.8823   389.1003 </r>
       <r>     2.0117    15.2389   390.1168 </r>
       <r>     2.0782    14.0665   391.0556 </r>
       <r>     2.1447    13.2500   391.9392 </r>
       <r>     2.2113    12.6580   392.7829 </r>
       <r>     2.2778    12.1893   393.5955 </r>
       <r>     2.3444    11.8081   394.3830 </r>
       <r>     2.4109    11.5139   395.1501 </r>
       <r>     2.4774    11.3064   395.9030 </r>
       <r>     2.5440    11.2520   396.6523 </r>
       <r>     2.6105    11.4103   397.4123 </r>
       <r>     2.6771    11.7387   398.1939 </r>
       <r>     2.7436    12.1495   399.0026 </r>
       <r>     2.8101    12.5400   399.8376 </r>
       <r>     2.8767    12.7493   400.6863 </r>
       <r>     2.9432    12.6613   401.5291 </r>
       <r>     3.0098    12.4180   402.3559 </r>
       <r>     3.0763    12.3527   403.1782 </r>
       <r>     3.1428    12.6450   404.0199 </r>
       <r>     3.2094    13.1213   404.8934 </r>
       <r>     3.2759    13.3934   405.7850 </r>
       <r>     3.3425    13.1712   406.6615 </r>
       <r>     3.4090    12.4837   407.4927 </r>
       <r>     3.4755    11.6451   408.2678 </r>
       <r>     3.5421    11.0403   409.0028 </r>
       <r>     3.6086    10.9119   409.7292 </r>
       <r>     3.6752    11.1765   410.4735 </r>
       <r>     3.7417    11.5152   411.2402 </r>
       <r>     3.8082    11.6629   412.0167 </r>
       <r>     3.8748    11.5987   412.7886 </r>
       <r>     3.9413    11.4629   413.5518 </r>
       <r>     4.0079    11.4665   414.3152 </r>
       <r>     4.0744    11.6237   415.0892 </r>
       <r>     4.1409    11.7337   415.8705 </r>
       <r>     4.2075    11.5929   416.6422 </r>
       <r>     4.2740    11.1987   417.3877 </r>
       <r>     4.3406    10.7555   418.1036 </r>
       <r>     4.4071    10.5655   418.8069 </r>
       <r>     4.4736    10.7810   419.5246 </r>
       <r>     4.5402    11.2541   420.2739 </r>
       <r>     4.6067    11.6865   421.0520 </r>
       <r>     4.6733    11.8578   421.8414 </r>
       <r>     4.7398    11.6780   422.6188 </r>
       <r>     4.8063    11.2336   423.3665 </r>
       <r>     4.8729    10.7616   424.0830 </r>
       <r>     4.9394    10.4425   424.7784 </r>
       <r>     5.0060    10.3264   425.4659 </r>
       <r>     5.0725    10.3618   426.1558 </r>
       <r>     5.1391    10.4566   426.8519 </r>
       <r>     5.2056    10.5295   427.5527 </r>
       <r>     5.2721    10.6240   428.2598 </r>
       <r>     5.3387    10.8068   428.9793 </r>
       <r>     5.4052    11.0195   429.7130 </r>
       <r>     5.4718    11.0999   430.4518 </r>
       <r>     5.5383    10.9651   431.1821 </r>
       <r>     5.6048    10.6336   431.8898 </r>
       <r>     5.6714    10.0602   432.5596 </r>
       <r>     5.7379     9.2532   433.1757 </r>
       <r>     5.8045     8.3910   433.7344 </r>
       <r>     5.8710     7.7152   434.2480 </r>
       <r>     5.9375     7.3262   434.7360 </r>
       <r>     6.0041     7.1864   435.2145 </r>
       <r>     6.0706     7.2150   435.6948 </r>
       <r>     6.1372     7.3018   436.1810 </r>
       <r>     6.2037     7.2873   436.6663 </r>
       <r>     6.2702     7.0559   437.1363 </r>
       <r>     6.3368     6.6382   437.5782 </r>
       <r>     6.4033     6.1487   437.9877 </r>
       <r>     6.4699     5.6432   438.3635 </r>
       <r>     6.5364     5.1035   438.7035 </r>
       <r>     6.6029     4.5400   439.0057 </r>
       <r>     6.6695     3.9737   439.2704 </r>
       <r>     6.7360     3.3765   439.4952 </r>
       <r>     6.8026     2.6912   439.6746 </r>
       <r>     6.8691     1.9508   439.8044 </r>
       <r>     6.9356     1.2710   439.8893 </r>
       <r>     7.0022     0.7567   439.9399 </r>
       <r>     7.0687     0.4217   439.9683 </r>
       <r>     7.1353     0.2261   439.9835 </r>
       <r>     7.2018     0.1184   439.9915 </r>
       <r>     7.2683     0.0598   439.9957 </r>
       <r>     7.3349     0.0299   439.9979 </r>
       <r>     7.4014     0.0146   439.9990 </r>
       <r>     7.4680     0.0066   439.9995 </r>
       <r>     7.5345     0.0027   439.9998 </r>
       <r>     7.6010     0.0000   440.0000 </r>
       <r>     7.6676     0.0000   440.0000 </r>
       <r>     7.7341     0.0000   440.0000 </r>
       <r>     7.8007     0.0000   440.0000 </r>
      </set>
     </set>
    </array>
   </total>
  </dos>
 </calculation>
 <structure name="finalpos" >
  <crystal>
   <varray name="basis" >
    <v>       8.42164176       0.00000000       0.00000000 </v>
    <v>       4.21082088       7.29335571       0.00000000 </v>
    <v>       0.00000000       0.00000000      21.87624171 </v>
   </varray>
   <i name="volume">   1343.68315334 </i>
   <varray name="rec_basis" >
    <v>       0.11874169      -0.06855555       0.00000000 </v>
    <v>       0.00000000       0.13711110       0.00000000 </v>
    <v>       0.00000000       0.00000000       0.04571169 </v>
   </varray>
  </crystal>
  <varray name="positions" >
   <v>       0.00000000       0.00000000       0.34283768 </v>
   <v>       0.33333333       0.00000000       0.34283768 </v>
   <v>       0.66666667       0.00000000       0.34283768 </v>
   <v>       0.00000000       0.33333333       0.34283768 </v>
   <v>       0.33333333       0.33333333       0.34283768 </v>
   <v>       0.66666667       0.33333333       0.34283768 </v>
   <v>       0.00000000       0.66666667       0.34283768 </v>
   <v>       0.33333333       0.66666667       0.34283768 </v>
   <v>       0.66666667       0.66666667       0.34283768 </v>
   <v>       0.11111111       0.11111111       0.44761256 </v>
   <v>       0.44444444       0.11111111       0.44761256 </v>
   <v>       0.77777778       0.11111111       0.44761256 </v>
   <v>       0.11111111       0.44444444       0.44761256 </v>
   <v>       0.44444444       0.44444444       0.44761256 </v>
   <v>       0.77777778       0.44444444       0.44761256 </v>
   <v>       0.11111111       0.77777778       0.44761256 </v>
   <v>       0.44444444       0.77777778       0.44761256 </v>
   <v>       0.77777778       0.77777778       0.44761256 </v>
   <v>       0.88706171       0.22270836       0.55197431 </v>
   <v>       0.22317109       0.22268400       0.55197526 </v>
   <v>       0.55496162       0.22299928       0.55240074 </v>
   <v>       0.88896641       0.55474178       0.55101925 </v>
   <v>       0.22327025       0.55458533       0.55240215 </v>
   <v>       0.55491142       0.55465699       0.55243798 </v>
   <v>       0.88900367       0.88864281       0.55103160 </v>
   <v>       0.22302540       0.88667432       0.55195033 </v>
   <v>       0.55512154       0.88865425       0.55101056 </v>
   <v>       0.99986853       0.99886464       0.65645076 </v>
   <v>       0.33309637       0.99874989       0.65640106 </v>
   <v>       0.66851218       0.99492351       0.65622665 </v>
   <v>       0.99990558       0.33207826       0.65641379 </v>
   <v>       0.32958538       0.32879713       0.66263379 </v>
   <v>       0.67372077       0.32879151       0.66272622 </v>
   <v>       0.99556726       0.66782838       0.65619516 </v>
   <v>       0.32967796       0.67257302       0.66273802 </v>
   <v>       0.66874887       0.66789261       0.65620526 </v>
   <v>       0.44434811       0.44303213       0.71219407 </v>
   <v>       0.44430597       0.44280093       0.76251615 </v>
  </varray>
  <varray name="selective"  type="logical" >
   <v type="logical" >  F  F  F </v>
   <v type="logical" >  F  F  F </v>
   <v type="logical" >  F  F  F </v>
   <v type="logical" >  F  F  F </v>
   <v type="logical" >  F  F  F </v>
   <v type="logical" >  F  F  F </v>
   <v type="logical" >  F  F  F </v>
   <v type="logical" >  F  F  F </v>
   <v type="logical" >  F  F  F </v>
   <v type="logical" >  F  F  F </v>
   <v type="logical" >  F  F  F </v>
   <v type="logical" >  F  F  F </v>
   <v type="logical" >  F  F  F </v>
   <v type="logical" >  F  F  F </v>
   <v type="logical" >  F  F  F </v>
   <v type="logical" >  F  F  F </v>
   <v type="logical" >  F  F  F </v>
   <v type="logical" >  F  F  F </v>
   <v type="logical" >  T  T  T </v>
   <v type="logical" >  T  T  T </v>
   <v type="logical" >  T  T  T </v>
   <v type="logical" >  T  T  T </v>
   <v type="logical" >  T  T  T </v>
   <v type="logical" >  T  T  T </v>
   <v type="logical" >  T  T  T </v>
   <v type="logical" >  T  T  T </v>
   <v type="logical" >  T  T  T </v>
   <v type="logical" >  T  T  T </v>
   <v type="logical" >  T  T  T </v>
   <v type="logical" >  T  T  T </v>
   <v type="logical" >  T  T  T </v>
   <v type="logical" >  T  T  T </v>
   <v type="logical" >  T  T  T </v>
   <v type="logical" >  T  T  T </v>
   <v type="logical" >  T  T  T </v>
   <v type="logical" >  T  T  T </v>
   <v type="logical" >  T  T  T </v>
   <v type="logical" >  T  T  T </v>
  </varray>
  <nose>
   <v>      -3.00000000       0.00000000       0.00010000       0.00010000 </v>
  </nose>
 </structure>
</modeling>
