   4   4   0   0
  0.2000000E+04  0.2000000E-08  0.2000000E-08  0.2000000E-08  0.5000000E-15
  1.000000000000000E-004
  CAR 
 unknown system                          
      1.12370892    -19.56907605  301     -4.67027087      1.00000000
    -19.569  0.0000E+00  0.0000E+00
    -19.500  0.0000E+00  0.0000E+00
    -19.431  0.5229E-02  0.3607E-03
    -19.362  0.5192E-02  0.7188E-03
    -19.293  0.1034E-01  0.1432E-02
    -19.224  0.2059E-01  0.2853E-02
    -19.155  0.4096E-01  0.5678E-02
    -19.086  0.8130E-01  0.1129E-01
    -19.017  0.1607E+00  0.2237E-01
    -18.948  0.3150E+00  0.4410E-01
    -18.879  0.6077E+00  0.8602E-01
    -18.810  0.1137E+01  0.1644E+00
    -18.741  0.2009E+01  0.3030E+00
    -18.672  0.3218E+01  0.5250E+00
    -18.603  0.4422E+01  0.8300E+00
    -18.534  0.4951E+01  0.1171E+01
    -18.465  0.4418E+01  0.1476E+01
    -18.396  0.3212E+01  0.1698E+01
    -18.328  0.2004E+01  0.1836E+01
    -18.259  0.1134E+01  0.1914E+01
    -18.190  0.6060E+00  0.1956E+01
    -18.121  0.3141E+00  0.1978E+01
    -18.052  0.1602E+00  0.1989E+01
    -17.983  0.8106E-01  0.1994E+01
    -17.914  0.4084E-01  0.1997E+01
    -17.845  0.2053E-01  0.1999E+01
    -17.776  0.1031E-01  0.1999E+01
    -17.707  0.0000E+00  0.2000E+01
    -17.638  0.0000E+00  0.2000E+01
    -17.569  0.0000E+00  0.2000E+01
    -17.500  0.0000E+00  0.2000E+01
    -17.431  0.0000E+00  0.2000E+01
    -17.362  0.0000E+00  0.2000E+01
    -17.293  0.0000E+00  0.2000E+01
    -17.224  0.0000E+00  0.2000E+01
    -17.155  0.0000E+00  0.2000E+01
    -17.086  0.0000E+00  0.2000E+01
    -17.017  0.0000E+00  0.2000E+01
    -16.948  0.0000E+00  0.2000E+01
    -16.879  0.0000E+00  0.2000E+01
    -16.810  0.0000E+00  0.2000E+01
    -16.741  0.0000E+00  0.2000E+01
    -16.672  0.0000E+00  0.2000E+01
    -16.603  0.0000E+00  0.2000E+01
    -16.534  0.0000E+00  0.2000E+01
    -16.465  0.0000E+00  0.2000E+01
    -16.396  0.0000E+00  0.2000E+01
    -16.327  0.0000E+00  0.2000E+01
    -16.258  0.0000E+00  0.2000E+01
    -16.189  0.0000E+00  0.2000E+01
    -16.120  0.0000E+00  0.2000E+01
    -16.051  0.0000E+00  0.2000E+01
    -15.982  0.0000E+00  0.2000E+01
    -15.913  0.0000E+00  0.2000E+01
    -15.844  0.0000E+00  0.2000E+01
    -15.775  0.0000E+00  0.2000E+01
    -15.706  0.0000E+00  0.2000E+01
    -15.637  0.0000E+00  0.2000E+01
    -15.568  0.0000E+00  0.2000E+01
    -15.499  0.0000E+00  0.2000E+01
    -15.431  0.0000E+00  0.2000E+01
    -15.362  0.0000E+00  0.2000E+01
    -15.293  0.0000E+00  0.2000E+01
    -15.224  0.0000E+00  0.2000E+01
    -15.155  0.0000E+00  0.2000E+01
    -15.086  0.0000E+00  0.2000E+01
    -15.017  0.0000E+00  0.2000E+01
    -14.948  0.0000E+00  0.2000E+01
    -14.879  0.0000E+00  0.2000E+01
    -14.810  0.6182E-02  0.2000E+01
    -14.741  0.6137E-02  0.2001E+01
    -14.672  0.1223E-01  0.2002E+01
    -14.603  0.2434E-01  0.2003E+01
    -14.534  0.4839E-01  0.2007E+01
    -14.465  0.9597E-01  0.2013E+01
    -14.396  0.1894E+00  0.2026E+01
    -14.327  0.3702E+00  0.2052E+01
    -14.258  0.7100E+00  0.2101E+01
    -14.189  0.1314E+01  0.2192E+01
    -14.120  0.2277E+01  0.2349E+01
    -14.051  0.3533E+01  0.2592E+01
    -13.982  0.4639E+01  0.2912E+01
    -13.913  0.4917E+01  0.3251E+01
    -13.844  0.4160E+01  0.3538E+01
    -13.775  0.2899E+01  0.3738E+01
    -13.706  0.1758E+01  0.3860E+01
    -13.637  0.9778E+00  0.3927E+01
    -13.568  0.5178E+00  0.3963E+01
    -13.499  0.2671E+00  0.3981E+01
    -13.430  0.1359E+00  0.3990E+01
    -13.361  0.6865E-01  0.3995E+01
    -13.292  0.3457E-01  0.3998E+01
    -13.223  0.1737E-01  0.3999E+01
    -13.154  0.0000E+00  0.4000E+01
    -13.085  0.0000E+00  0.4000E+01
    -13.016  0.0000E+00  0.4000E+01
    -12.947  0.5409E-02  0.4000E+01
    -12.878  0.5371E-02  0.4001E+01
    -12.809  0.1070E-01  0.4001E+01
    -12.740  0.2130E-01  0.4003E+01
    -12.671  0.4237E-01  0.4006E+01
    -12.603  0.8408E-01  0.4012E+01
    -12.534  0.1661E+00  0.4023E+01
    -12.465  0.3255E+00  0.4046E+01
    -12.396  0.6273E+00  0.4089E+01
    -12.327  0.1171E+01  0.4170E+01
    -12.258  0.2062E+01  0.4312E+01
    -12.189  0.3282E+01  0.4538E+01
    -12.120  0.4470E+01  0.4846E+01
    -12.051  0.4950E+01  0.5188E+01
    -11.982  0.4369E+01  0.5489E+01
    -11.913  0.3148E+01  0.5706E+01
    -11.844  0.1953E+01  0.5841E+01
    -11.775  0.1101E+01  0.5917E+01
    -11.706  0.5871E+00  0.5957E+01
    -11.637  0.3040E+00  0.5978E+01
    -11.568  0.1550E+00  0.5989E+01
    -11.499  0.7838E-01  0.5995E+01
    -11.430  0.3948E-01  0.5997E+01
    -11.361  0.1985E-01  0.5999E+01
    -11.292  0.9968E-02  0.5999E+01
    -11.223  0.0000E+00  0.6000E+01
    -11.154  0.0000E+00  0.6000E+01
    -11.085  0.0000E+00  0.6000E+01
    -11.016  0.0000E+00  0.6000E+01
    -10.947  0.0000E+00  0.6000E+01
    -10.878  0.0000E+00  0.6000E+01
    -10.809  0.0000E+00  0.6000E+01
    -10.740  0.0000E+00  0.6000E+01
    -10.671  0.0000E+00  0.6000E+01
    -10.602  0.0000E+00  0.6000E+01
    -10.533  0.0000E+00  0.6000E+01
    -10.464  0.0000E+00  0.6000E+01
    -10.395  0.0000E+00  0.6000E+01
    -10.326  0.0000E+00  0.6000E+01
    -10.257  0.0000E+00  0.6000E+01
    -10.188  0.0000E+00  0.6000E+01
    -10.119  0.0000E+00  0.6000E+01
    -10.050  0.0000E+00  0.6000E+01
     -9.981  0.0000E+00  0.6000E+01
     -9.912  0.0000E+00  0.6000E+01
     -9.843  0.0000E+00  0.6000E+01
     -9.774  0.0000E+00  0.6000E+01
     -9.706  0.0000E+00  0.6000E+01
     -9.637  0.0000E+00  0.6000E+01
     -9.568  0.0000E+00  0.6000E+01
     -9.499  0.0000E+00  0.6000E+01
     -9.430  0.0000E+00  0.6000E+01
     -9.361  0.0000E+00  0.6000E+01
     -9.292  0.0000E+00  0.6000E+01
     -9.223  0.0000E+00  0.6000E+01
     -9.154  0.0000E+00  0.6000E+01
     -9.085  0.0000E+00  0.6000E+01
     -9.016  0.0000E+00  0.6000E+01
     -8.947  0.0000E+00  0.6000E+01
     -8.878  0.0000E+00  0.6000E+01
     -8.809  0.0000E+00  0.6000E+01
     -8.740  0.0000E+00  0.6000E+01
     -8.671  0.0000E+00  0.6000E+01
     -8.602  0.0000E+00  0.6000E+01
     -8.533  0.0000E+00  0.6000E+01
     -8.464  0.0000E+00  0.6000E+01
     -8.395  0.0000E+00  0.6000E+01
     -8.326  0.0000E+00  0.6000E+01
     -8.257  0.0000E+00  0.6000E+01
     -8.188  0.0000E+00  0.6000E+01
     -8.119  0.0000E+00  0.6000E+01
     -8.050  0.0000E+00  0.6000E+01
     -7.981  0.1581E-01  0.6001E+01
     -7.912  0.1569E-01  0.6002E+01
     -7.843  0.3125E-01  0.6004E+01
     -7.774  0.6219E-01  0.6009E+01
     -7.705  0.1236E+00  0.6017E+01
     -7.636  0.2447E+00  0.6034E+01
     -7.567  0.4816E+00  0.6067E+01
     -7.498  0.9363E+00  0.6132E+01
     -7.429  0.1777E+01  0.6254E+01
     -7.360  0.3227E+01  0.6477E+01
     -7.291  0.5409E+01  0.6850E+01
     -7.222  0.7959E+01  0.7399E+01
     -7.153  0.9722E+01  0.8070E+01
     -7.084  0.9500E+01  0.8725E+01
     -7.015  0.7460E+01  0.9240E+01
     -6.946  0.4915E+01  0.9579E+01
     -6.878  0.2875E+01  0.9777E+01
     -6.809  0.1566E+01  0.9885E+01
     -6.740  0.8198E+00  0.9941E+01
     -6.671  0.4203E+00  0.9970E+01
     -6.602  0.2132E+00  0.9985E+01
     -6.533  0.1076E+00  0.9993E+01
     -6.464  0.5412E-01  0.9996E+01
     -6.395  0.2719E-01  0.9998E+01
     -6.326  0.0000E+00  0.1000E+02
     -6.257  0.0000E+00  0.1000E+02
     -6.188  0.0000E+00  0.1000E+02
     -6.119  0.0000E+00  0.1000E+02
     -6.050  0.0000E+00  0.1000E+02
     -5.981  0.0000E+00  0.1000E+02
     -5.912  0.0000E+00  0.1000E+02
     -5.843  0.0000E+00  0.1000E+02
     -5.774  0.0000E+00  0.1000E+02
     -5.705  0.0000E+00  0.1000E+02
     -5.636  0.0000E+00  0.1000E+02
     -5.567  0.0000E+00  0.1000E+02
     -5.498  0.0000E+00  0.1000E+02
     -5.429  0.0000E+00  0.1000E+02
     -5.360  0.0000E+00  0.1000E+02
     -5.291  0.0000E+00  0.1000E+02
     -5.222  0.0000E+00  0.1000E+02
     -5.153  0.0000E+00  0.1000E+02
     -5.084  0.0000E+00  0.1000E+02
     -5.015  0.0000E+00  0.1000E+02
     -4.946  0.0000E+00  0.1000E+02
     -4.877  0.0000E+00  0.1000E+02
     -4.808  0.0000E+00  0.1000E+02
     -4.739  0.0000E+00  0.1000E+02
     -4.670  0.0000E+00  0.1000E+02
     -4.601  0.0000E+00  0.1000E+02
     -4.532  0.0000E+00  0.1000E+02
     -4.463  0.0000E+00  0.1000E+02
     -4.394  0.0000E+00  0.1000E+02
     -4.325  0.0000E+00  0.1000E+02
     -4.256  0.0000E+00  0.1000E+02
     -4.187  0.0000E+00  0.1000E+02
     -4.118  0.0000E+00  0.1000E+02
     -4.049  0.0000E+00  0.1000E+02
     -3.981  0.0000E+00  0.1000E+02
     -3.912  0.0000E+00  0.1000E+02
     -3.843  0.0000E+00  0.1000E+02
     -3.774  0.0000E+00  0.1000E+02
     -3.705  0.0000E+00  0.1000E+02
     -3.636  0.0000E+00  0.1000E+02
     -3.567  0.0000E+00  0.1000E+02
     -3.498  0.0000E+00  0.1000E+02
     -3.429  0.0000E+00  0.1000E+02
     -3.360  0.0000E+00  0.1000E+02
     -3.291  0.0000E+00  0.1000E+02
     -3.222  0.0000E+00  0.1000E+02
     -3.153  0.0000E+00  0.1000E+02
     -3.084  0.0000E+00  0.1000E+02
     -3.015  0.0000E+00  0.1000E+02
     -2.946  0.0000E+00  0.1000E+02
     -2.877  0.0000E+00  0.1000E+02
     -2.808  0.0000E+00  0.1000E+02
     -2.739  0.0000E+00  0.1000E+02
     -2.670  0.0000E+00  0.1000E+02
     -2.601  0.0000E+00  0.1000E+02
     -2.532  0.0000E+00  0.1000E+02
     -2.463  0.0000E+00  0.1000E+02
     -2.394  0.0000E+00  0.1000E+02
     -2.325  0.0000E+00  0.1000E+02
     -2.256  0.0000E+00  0.1000E+02
     -2.187  0.0000E+00  0.1000E+02
     -2.118  0.0000E+00  0.1000E+02
     -2.049  0.0000E+00  0.1000E+02
     -1.980  0.0000E+00  0.1000E+02
     -1.911  0.0000E+00  0.1000E+02
     -1.842  0.0000E+00  0.1000E+02
     -1.773  0.0000E+00  0.1000E+02
     -1.704  0.0000E+00  0.1000E+02
     -1.635  0.0000E+00  0.1000E+02
     -1.566  0.0000E+00  0.1000E+02
     -1.497  0.0000E+00  0.1000E+02
     -1.428  0.0000E+00  0.1000E+02
     -1.359  0.0000E+00  0.1000E+02
     -1.290  0.4893E-02  0.1000E+02
     -1.221  0.1449E-01  0.1000E+02
     -1.152  0.1924E-01  0.1000E+02
     -1.084  0.3831E-01  0.1001E+02
     -1.015  0.8566E-01  0.1001E+02
     -0.946  0.1607E+00  0.1002E+02
     -0.877  0.3179E+00  0.1004E+02
     -0.808  0.6304E+00  0.1009E+02
     -0.739  0.1220E+01  0.1017E+02
     -0.670  0.2296E+01  0.1033E+02
     -0.601  0.4119E+01  0.1061E+02
     -0.532  0.6784E+01  0.1108E+02
     -0.463  0.9806E+01  0.1176E+02
     -0.394  0.1202E+02  0.1259E+02
     -0.325  0.1259E+02  0.1346E+02
     -0.256  0.1197E+02  0.1428E+02
     -0.187  0.1105E+02  0.1504E+02
     -0.118  0.1031E+02  0.1576E+02
     -0.049  0.1016E+02  0.1646E+02
      0.020  0.1064E+02  0.1719E+02
      0.089  0.1093E+02  0.1794E+02
      0.158  0.1001E+02  0.1863E+02
      0.227  0.7827E+01  0.1917E+02
      0.296  0.5252E+01  0.1954E+02
      0.365  0.3133E+01  0.1975E+02
      0.434  0.1719E+01  0.1987E+02
      0.503  0.9078E+00  0.1993E+02
      0.572  0.4676E+00  0.1997E+02
      0.641  0.2321E+00  0.1998E+02
      0.710  0.1172E+00  0.1999E+02
      0.779  0.5903E-01  0.2000E+02
      0.848  0.2059E-01  0.2000E+02
      0.917  0.1034E-01  0.2000E+02
      0.986  0.0000E+00  0.2000E+02
      1.055  0.0000E+00  0.2000E+02
      1.124  0.0000E+00  0.2000E+02
