 running on   20 total cores
 distrk:  each k-point on   20 cores,    1 groups
 distr:  one band on    4 cores,    5 groups
 using from now: INCAR     
 vasp.5.4.1 24Jun15 (build Oct 10 2016 12:42:00) complex                        
  
 POSCAR found :  2 types and       4 ions
 scaLAPACK will be used

 ----------------------------------------------------------------------------- 
|                                                                             |
|  ADVICE TO THIS USER RUNNING 'VASP/VAMP'   (HEAR YOUR MASTER'S VOICE ...):  |
|                                                                             |
|      You have a (more or less) 'small supercell' and for smaller cells      |
|      it is recommended  to use the reciprocal-space projection scheme!      |
|      The real space optimization is not  efficient for small cells and it   |
|      is also less accurate ...                                              |
|      Therefore set LREAL=.FALSE. in the  INCAR file                         |
|                                                                             |
 ----------------------------------------------------------------------------- 

 LDA part: xc-table for Pade appr. of Perdew
 POSCAR found :  2 types and       4 ions
 POSCAR, INCAR and KPOINTS ok, starting setup
 WARNING: small aliasing (wrap around) errors must be expected
 FFT: planning ...
 WAVECAR not read
 entering main loop
       N       E                     dE             d eps       ncg     rms          rms(c)
DAV:   1     0.352226821041E+02    0.35223E+02   -0.18223E+03    40   0.321E+02
DAV:   2    -0.196247965488E+02   -0.54847E+02   -0.54847E+02    30   0.104E+02
DAV:   3    -0.263306208362E+02   -0.67058E+01   -0.67058E+01    20   0.448E+01
DAV:   4    -0.264773563410E+02   -0.14674E+00   -0.14674E+00    40   0.858E+00    0.908E+00
RMM:   5    -0.235796263244E+02    0.28977E+01   -0.45726E+00    27   0.118E+01    0.471E+00
RMM:   6    -0.229801414743E+02    0.59948E+00   -0.31742E+00    29   0.918E+00    0.189E+00
RMM:   7    -0.229372305405E+02    0.42911E-01   -0.13367E-01    29   0.234E+00    0.243E-01
RMM:   8    -0.229329044929E+02    0.43260E-02   -0.25028E-02    30   0.731E-01    0.163E-01
RMM:   9    -0.229345494225E+02   -0.16449E-02   -0.11873E-02    27   0.509E-01    0.162E-01
RMM:  10    -0.229355452455E+02   -0.99582E-03   -0.16589E-03    30   0.228E-01    0.459E-02
RMM:  11    -0.229418889663E+02   -0.63437E-02   -0.18467E-03    23   0.203E-01    0.283E-02
RMM:  12    -0.229428325073E+02   -0.94354E-03   -0.33870E-04    31   0.662E-02    0.214E-02
RMM:  13    -0.229468666842E+02   -0.40342E-02   -0.81199E-04    23   0.125E-01    0.220E-02
RMM:  14    -0.229471697647E+02   -0.30308E-03   -0.12919E-04    30   0.387E-02    0.790E-03
RMM:  15    -0.229479067485E+02   -0.73698E-03   -0.84239E-05    25   0.394E-02    0.797E-03
RMM:  16    -0.229479847720E+02   -0.78023E-04   -0.16474E-05    28   0.167E-02    0.194E-03
RMM:  17    -0.229480896073E+02   -0.10484E-03   -0.96442E-06    29   0.145E-02    0.507E-03
RMM:  18    -0.229481266811E+02   -0.37074E-04   -0.51896E-06    28   0.115E-02    0.101E-03
RMM:  19    -0.229481469796E+02   -0.20298E-04   -0.19126E-07    25   0.282E-03    0.735E-04
RMM:  20    -0.229481507550E+02   -0.37754E-05    0.00000E+00    20   0.117E-03    0.217E-04
RMM:  21    -0.229481546889E+02   -0.39339E-05   -0.11357E-07    19   0.181E-03    0.187E-04
RMM:  22    -0.229481555224E+02   -0.83356E-06    0.00000E+00    20   0.900E-04
   1 F= -.22948156E+02 E0= -.22948156E+02  d E =-.158852E-09
