<?xml version="1.0" encoding="ISO-8859-1"?>
<modeling>
 <generator>
  <i name="program" type="string">vasp </i>
  <i name="version" type="string">5.4.1  </i>
  <i name="subversion" type="string">24Jun15 (build Oct 10 2016 12:42:00) complex                          parallel </i>
  <i name="platform" type="string">IFC91_ompi </i>
  <i name="date" type="string">2018 07 05 </i>
  <i name="time" type="string">19:22:01 </i>
 </generator>
 <incar>
  <i type="string" name="PREC">normal</i>
  <i type="string" name="ALGO"> fast</i>
  <i type="int" name="ISPIN">     1</i>
  <i type="int" name="NELMDL">    -4</i>
  <i type="int" name="NELMIN">     4</i>
  <i name="EDIFF">      0.00000100</i>
  <i name="ENCUT">    400.00000000</i>
  <i type="string" name="LREAL"> auto</i>
  <i type="int" name="ISMEAR">    -1</i>
  <i name="SIGMA">      0.10000000</i>
  <i type="logical" name="LWAVE"> F  </i>
  <i type="logical" name="LCHARG"> F  </i>
  <v type="int" name="KPOINT_BSE">    -1     0     0     0</v>
  <i type="string" name="GGA"> PE</i>
 </incar>
 <kpoints>
  <generation param="Monkhorst-Pack">
   <v type="int" name="divisions">       1        1        1 </v>
   <v name="usershift">      0.00000000       0.00000000       0.00000000 </v>
   <v name="genvec1">      1.00000000       0.00000000       0.00000000 </v>
   <v name="genvec2">      0.00000000       1.00000000       0.00000000 </v>
   <v name="genvec3">      0.00000000       0.00000000       1.00000000 </v>
   <v name="shift">      0.00000000       0.00000000       0.00000000 </v>
  </generation>
  <varray name="kpointlist" >
   <v>       0.00000000       0.00000000       0.00000000 </v>
  </varray>
  <varray name="weights" >
   <v>       1.00000000 </v>
  </varray>
 </kpoints>
 <parameters>
  <separator name="general" >
   <i type="string" name="SYSTEM">unknown system</i>
   <i type="logical" name="LCOMPAT"> F  </i>
  </separator>
  <separator name="electronic" >
   <i type="string" name="PREC">normal</i>
   <i name="ENMAX">    400.00000000</i>
   <i name="ENAUG">    644.87300000</i>
   <i name="EDIFF">      0.00000100</i>
   <i type="int" name="IALGO">    68</i>
   <i type="int" name="IWAVPR">    10</i>
   <i type="int" name="NBANDS">    10</i>
   <i name="NELECT">     10.00000000</i>
   <i type="int" name="TURBO">     0</i>
   <i type="int" name="IRESTART">     0</i>
   <i type="int" name="NREBOOT">     0</i>
   <i type="int" name="NMIN">     0</i>
   <i name="EREF">      0.00000000</i>
   <separator name="electronic smearing" >
    <i type="int" name="ISMEAR">    -1</i>
    <i name="SIGMA">      0.10000000</i>
    <i name="KSPACING">      0.50000000</i>
    <i type="logical" name="KGAMMA"> T  </i>
   </separator>
   <separator name="electronic projectors" >
    <i type="logical" name="LREAL"> T  </i>
    <v name="ROPT">     -0.00050000     -0.00050000</v>
    <i type="int" name="LMAXPAW">  -100</i>
    <i type="int" name="LMAXMIX">     2</i>
    <i type="logical" name="NLSPLINE"> F  </i>
   </separator>
   <separator name="electronic startup" >
    <i type="int" name="ISTART">     0</i>
    <i type="int" name="ICHARG">     2</i>
    <i type="int" name="INIWAV">     1</i>
   </separator>
   <separator name="electronic spin" >
    <i type="int" name="ISPIN">     1</i>
    <i type="logical" name="LNONCOLLINEAR"> F  </i>
    <v name="MAGMOM">      1.00000000      1.00000000      1.00000000      1.00000000</v>
    <i name="NUPDOWN">     -1.00000000</i>
    <i type="logical" name="LSORBIT"> F  </i>
    <v name="SAXIS">      0.00000000      0.00000000      1.00000000</v>
    <i type="logical" name="LSPIRAL"> F  </i>
    <v name="QSPIRAL">      0.00000000      0.00000000      0.00000000</v>
    <i type="logical" name="LZEROZ"> F  </i>
   </separator>
   <separator name="electronic exchange-correlation" >
    <i type="logical" name="LASPH"> F  </i>
    <i type="logical" name="LMETAGGA"> F  </i>
   </separator>
   <separator name="electronic convergence" >
    <i type="int" name="NELM">    60</i>
    <i type="int" name="NELMDL">    -4</i>
    <i type="int" name="NELMIN">     4</i>
    <i name="ENINI">    400.00000000</i>
    <separator name="electronic convergence detail" >
     <i type="logical" name="LDIAG"> T  </i>
     <i type="logical" name="LSUBROT"> F  </i>
     <i name="WEIMIN">      0.00000000</i>
     <i name="EBREAK">      0.00000002</i>
     <i name="DEPER">      0.30000000</i>
     <i type="int" name="NRMM">     4</i>
     <i name="TIME">      0.40000000</i>
    </separator>
   </separator>
   <separator name="electronic mixer" >
    <i name="AMIX">      0.40000000</i>
    <i name="BMIX">      1.00000000</i>
    <i name="AMIN">      0.10000000</i>
    <i name="AMIX_MAG">      1.60000000</i>
    <i name="BMIX_MAG">      1.00000000</i>
    <separator name="electronic mixer details" >
     <i type="int" name="IMIX">     4</i>
     <i type="logical" name="MIXFIRST"> F  </i>
     <i type="int" name="MAXMIX">   -45</i>
     <i name="WC">    100.00000000</i>
     <i type="int" name="INIMIX">     1</i>
     <i type="int" name="MIXPRE">     1</i>
     <i type="int" name="MREMOVE">     5</i>
    </separator>
   </separator>
   <separator name="electronic dipolcorrection" >
    <i type="logical" name="LDIPOL"> F  </i>
    <i type="logical" name="LMONO"> F  </i>
    <i type="int" name="IDIPOL">     0</i>
    <i name="EPSILON">      1.00000000</i>
    <v name="DIPOL">   -100.00000000   -100.00000000   -100.00000000</v>
    <i name="EFIELD">      0.00000000</i>
   </separator>
  </separator>
  <separator name="grids" >
   <i type="int" name="NGX">    98</i>
   <i type="int" name="NGY">    98</i>
   <i type="int" name="NGZ">    98</i>
   <i type="int" name="NGXF">   196</i>
   <i type="int" name="NGYF">   196</i>
   <i type="int" name="NGZF">   196</i>
   <i type="logical" name="ADDGRID"> F  </i>
  </separator>
  <separator name="ionic" >
   <i type="int" name="NSW">     0</i>
   <i type="int" name="IBRION">    -1</i>
   <i type="int" name="ISIF">     2</i>
   <i name="PSTRESS">      0.00000000</i>
   <i name="EDIFFG">      0.00001000</i>
   <i type="int" name="NFREE">     0</i>
   <i name="POTIM">      0.50000000</i>
   <i name="SMASS">     -3.00000000</i>
   <i name="SCALEE">      1.00000000</i>
  </separator>
  <separator name="ionic md" >
   <i name="TEBEG">      0.00010000</i>
   <i name="TEEND">      0.00010000</i>
   <i type="int" name="NBLOCK">     1</i>
   <i type="int" name="KBLOCK">     1</i>
   <i type="int" name="NPACO">   256</i>
   <i name="APACO">     16.00000000</i>
  </separator>
  <separator name="symmetry" >
   <i type="int" name="ISYM">     2</i>
   <i name="SYMPREC">      0.00001000</i>
  </separator>
  <separator name="dos" >
   <i type="logical" name="LORBIT"> F  </i>
   <v name="RWIGS">     -1.00000000     -1.00000000</v>
   <i type="int" name="NEDOS">   301</i>
   <i name="EMIN">     10.00000000</i>
   <i name="EMAX">    -10.00000000</i>
   <i name="EFERMI">      0.00000000</i>
  </separator>
  <separator name="writing" >
   <i type="int" name="NWRITE">     2</i>
   <i type="logical" name="LWAVE"> F  </i>
   <i type="logical" name="LCHARG"> F  </i>
   <i type="logical" name="LPARD"> F  </i>
   <i type="logical" name="LVTOT"> F  </i>
   <i type="logical" name="LVHAR"> F  </i>
   <i type="logical" name="LELF"> F  </i>
   <i type="logical" name="LOPTICS"> F  </i>
   <v name="STM">      0.00000000      0.00000000      0.00000000      0.00000000      0.00000000      0.00000000      0.00000000</v>
  </separator>
  <separator name="performance" >
   <i type="int" name="NPAR">     5</i>
   <i type="int" name="NSIM">     4</i>
   <i type="int" name="NBLK">    -1</i>
   <i type="logical" name="LPLANE"> T  </i>
   <i type="logical" name="LSCALAPACK"> T  </i>
   <i type="logical" name="LSCAAWARE"> F  </i>
   <i type="logical" name="LSCALU"> F  </i>
   <i type="logical" name="LASYNC"> F  </i>
   <i type="logical" name="LORBITALREAL"> F  </i>
  </separator>
  <separator name="miscellaneous" >
   <i type="int" name="IDIOT">     3</i>
   <i type="logical" name="LMUSIC"> F  </i>
   <v name="POMASS">     12.01100000      1.00000000</v>
   <v name="DARWINR">      0.00000000      0.00000000</v>
   <v name="DARWINV">      1.00000000      1.00000000</v>
   <i type="logical" name="LCORR"> T  </i>
  </separator>
  <i type="logical" name="GGA_COMPAT"> T  </i>
  <i type="logical" name="LBERRY"> F  </i>
  <i type="int" name="ICORELEVEL">     0</i>
  <i type="logical" name="LDAU"> F  </i>
  <i type="int" name="I_CONSTRAINED_M">     0</i>
  <separator name="electronic exchange-correlation" >
   <i type="string" name="GGA">PE</i>
   <i type="int" name="VOSKOWN">     0</i>
   <i type="logical" name="LHFCALC"> F  </i>
   <i type="string" name="PRECFOCK"></i>
   <i type="logical" name="LSYMGRAD"> F  </i>
   <i type="logical" name="LHFONE"> F  </i>
   <i type="logical" name="LRHFCALC"> F  </i>
   <i type="logical" name="LTHOMAS"> F  </i>
   <i type="logical" name="LMODELHF"> F  </i>
   <i name="ENCUT4O">     -1.00000000</i>
   <i type="int" name="EXXOEP">     0</i>
   <i type="int" name="FOURORBIT">     0</i>
   <i name="AEXX">      0.00000000</i>
   <i name="HFALPHA">      0.00000000</i>
   <i name="MCALPHA">      0.00000000</i>
   <i name="ALDAX">      1.00000000</i>
   <i name="AGGAX">      1.00000000</i>
   <i name="ALDAC">      1.00000000</i>
   <i name="AGGAC">      1.00000000</i>
   <i type="int" name="NKREDX">     1</i>
   <i type="int" name="NKREDY">     1</i>
   <i type="int" name="NKREDZ">     1</i>
   <i type="logical" name="SHIFTRED"> F  </i>
   <i type="logical" name="ODDONLY"> F  </i>
   <i type="logical" name="EVENONLY"> F  </i>
   <i type="int" name="LMAXFOCK">     0</i>
   <i type="int" name="NMAXFOCKAE">     0</i>
   <i type="logical" name="LFOCKAEDFT"> F  </i>
   <i name="HFSCREEN">      0.00000000</i>
   <i name="HFSCREENC">      0.00000000</i>
   <i type="int" name="NBANDSGWLOW">     0</i>
  </separator>
  <separator name="vdW DFT" >
   <i type="logical" name="LUSE_VDW"> F  </i>
   <i name="Zab_VDW">     -0.84910000</i>
   <i name="PARAM1">      0.12340000</i>
   <i name="PARAM2">      1.00000000</i>
   <i name="PARAM3">      0.00000000</i>
  </separator>
  <separator name="model GW" >
   <i type="int" name="MODEL_GW">     0</i>
   <i name="MODEL_EPS0">   1200.00000000</i>
   <i name="MODEL_ALPHA">      1.00000000</i>
  </separator>
  <separator name="linear response parameters" >
   <i type="logical" name="LEPSILON"> F  </i>
   <i type="logical" name="LRPA"> F  </i>
   <i type="logical" name="LNABLA"> F  </i>
   <i type="logical" name="LVEL"> F  </i>
   <i type="int" name="KINTER">     0</i>
   <i name="CSHIFT">      0.10000000</i>
   <i name="OMEGAMAX">     -1.00000000</i>
   <i name="DEG_THRESHOLD">      0.00200000</i>
  </separator>
  <separator name="orbital magnetization" >
   <i type="logical" name="NUCIND"> F  </i>
   <v name="MAGPOS">      0.00000000      0.00000000      0.00000000</v>
   <i type="logical" name="LNICSALL"> T  </i>
   <i type="logical" name="ORBITALMAG"> F  </i>
   <i type="logical" name="LMAGBLOCH"> F  </i>
   <i type="logical" name="LCHIMAG"> F  </i>
   <i type="logical" name="LGAUGE"> T  </i>
   <i type="int" name="MAGATOM">     0</i>
   <v name="MAGDIPOL">      0.00000000      0.00000000      0.00000000</v>
   <v name="AVECCONST">      0.00000000      0.00000000      0.00000000</v>
  </separator>
  <separator name="response functions" >
   <i type="logical" name="LADDER"> F  </i>
   <i type="logical" name="LFXC"> F  </i>
   <i type="logical" name="LHARTREE"> T  </i>
   <i type="int" name="IBSE">     0</i>
   <v type="int" name="KPOINT">    -1     0     0     0</v>
   <i type="logical" name="LTCTE"> F  </i>
   <i type="logical" name="LTETE"> F  </i>
   <i type="logical" name="LTRIPLET"> F  </i>
   <i type="logical" name="LFXCEPS"> F  </i>
   <i type="logical" name="LFXHEG"> F  </i>
   <i type="int" name="NATURALO">     0</i>
   <i type="logical" name="L2ORDER"> F  </i>
   <i type="logical" name="LUSEW"> F  </i>
   <i name="ENCUTGW">     -2.00000000</i>
   <i name="ENCUTGWSOFT">     -2.00000000</i>
   <i name="ENCUTLF">     -1.00000000</i>
   <i type="int" name="LMAXMP2">    -1</i>
   <i name="SCISSOR">      0.00000000</i>
   <i type="int" name="NOMEGA">     0</i>
   <i type="int" name="NOMEGAR">     0</i>
   <i type="int" name="NBANDSGW">    -1</i>
   <i type="int" name="NBANDSO">    -1</i>
   <i type="int" name="NBANDSV">    -1</i>
   <i type="int" name="NELM">     1</i>
   <i type="int" name="NELMHF">     1</i>
   <i type="int" name="DIM">     3</i>
   <i type="int" name="ANTIRES">     0</i>
   <i name="OMEGAMAX">    -30.00000000</i>
   <i name="OMEGAMIN">    -30.00000000</i>
   <i name="OMEGATL">   -200.00000000</i>
   <i type="int" name="OMEGAGRID">     0</i>
   <i name="CSHIFT">     -0.10000000</i>
   <i type="logical" name="SELFENERGY"> F  </i>
   <i type="logical" name="LSPECTRAL"> F  </i>
   <i type="logical" name="LSPECTRALGW"> F  </i>
   <i type="logical" name="LSINGLES"> F  </i>
   <i type="logical" name="LFERMIGW"> F  </i>
   <i type="logical" name="ODDONLYGW"> F  </i>
   <i type="logical" name="EVENONLYGW"> F  </i>
   <i type="int" name="NKREDLFX">     1</i>
   <i type="int" name="NKREDLFY">     1</i>
   <i type="int" name="NKREDLFZ">     1</i>
   <i type="int" name="MAXMEM">  1800</i>
   <i type="int" name="TELESCOPE">     0</i>
   <i type="int" name="TAUPAR">     1</i>
   <i type="int" name="OMEGAPAR">    -1</i>
   <i name="LAMBDA">      1.00000000</i>
  </separator>
  <separator name="External order field" >
   <i name="OFIELD_KAPPA">      0.00000000</i>
   <v name="OFIELD_K">      0.00000000      0.00000000      0.00000000</v>
   <i name="OFIELD_Q6_NEAR">      0.00000000</i>
   <i name="OFIELD_Q6_FAR">      0.00000000</i>
   <i name="OFIELD_A">      0.00000000</i>
  </separator>
 </parameters>
 <atominfo>
  <atoms>       4 </atoms>
  <types>       2 </types>
  <array name="atoms" >
   <dimension dim="1">ion</dimension>
   <field type="string">element</field>
   <field type="int">atomtype</field>
   <set>
    <rc><c>C </c><c>   1</c></rc>
    <rc><c>C </c><c>   1</c></rc>
    <rc><c>H </c><c>   2</c></rc>
    <rc><c>H </c><c>   2</c></rc>
   </set>
  </array>
  <array name="atomtypes" >
   <dimension dim="1">type</dimension>
   <field type="int">atomspertype</field>
   <field type="string">element</field>
   <field>mass</field>
   <field>valence</field>
   <field type="string">pseudopotential</field>
   <set>
    <rc><c>   2</c><c>C </c><c>     12.01100000</c><c>      4.00000000</c><c>  PAW_PBE C 08Apr2002                   </c></rc>
    <rc><c>   2</c><c>H </c><c>      1.00000000</c><c>      1.00000000</c><c>  PAW_PBE H 15Jun2001                   </c></rc>
   </set>
  </array>
 </atominfo>
 <structure name="initialpos" >
  <crystal>
   <varray name="basis" >
    <v>      20.00000000       0.00000000       0.00000000 </v>
    <v>       0.00000000      20.00000000       0.00000000 </v>
    <v>       0.00000000       0.00000000      20.00000000 </v>
   </varray>
   <i name="volume">   8000.00000000 </i>
   <varray name="rec_basis" >
    <v>       0.05000000       0.00000000       0.00000000 </v>
    <v>       0.00000000       0.05000000       0.00000000 </v>
    <v>       0.00000000       0.00000000       0.05000000 </v>
   </varray>
  </crystal>
  <varray name="positions" >
   <v>       0.49950000       0.50000000       0.53019224 </v>
   <v>       0.50000000       0.50000000       0.46980776 </v>
   <v>       0.50000000       0.50000000       0.41625830 </v>
   <v>       0.50000000       0.50000000       0.58424170 </v>
  </varray>
 </structure>
 <calculation>
  <scstep>
   <time name="dav">    0.38    0.38</time>
   <time name="total">    1.93    2.10</time>
   <energy>
    <i name="alphaZ">      0.05743212 </i>
    <i name="ewald">    250.74811632 </i>
    <i name="hartreedc">   -460.23741737 </i>
    <i name="XCdc">     29.04111935 </i>
    <i name="pawpsdc">    221.31214763 </i>
    <i name="pawaedc">   -222.46871482 </i>
    <i name="eentropy">     -0.00001241 </i>
    <i name="bandstr">   -102.44170178 </i>
    <i name="atom">    319.21171307 </i>
    <i name="e_fr_energy">     35.22268210 </i>
    <i name="e_wo_entrp">     35.22269451 </i>
    <i name="e_0_energy">     35.22268831 </i>
   </energy>
  </scstep>
  <scstep>
   <time name="dav">    0.37    0.37</time>
   <time name="total">    0.37    0.38</time>
   <energy>
    <i name="e_fr_energy">    -19.62479655 </i>
    <i name="e_wo_entrp">    -19.62479655 </i>
    <i name="e_0_energy">    -19.62479655 </i>
   </energy>
  </scstep>
  <scstep>
   <time name="dav">    0.22    0.22</time>
   <time name="total">    0.22    0.22</time>
   <energy>
    <i name="e_fr_energy">    -26.33062084 </i>
    <i name="e_wo_entrp">    -26.33062084 </i>
    <i name="e_0_energy">    -26.33062084 </i>
   </energy>
  </scstep>
  <scstep>
   <time name="dav">    0.38    0.38</time>
   <time name="total">    0.52    0.52</time>
   <energy>
    <i name="e_fr_energy">    -26.47735634 </i>
    <i name="e_wo_entrp">    -26.47735634 </i>
    <i name="e_0_energy">    -26.47735634 </i>
   </energy>
  </scstep>
  <scstep>
   <time name="diag">    0.05    0.05</time>
   <time name="diis">    0.26    0.26</time>
   <time name="orth">    0.01    0.00</time>
   <time name="total">    0.83    0.83</time>
   <energy>
    <i name="e_fr_energy">    -23.57962632 </i>
    <i name="e_wo_entrp">    -23.57962632 </i>
    <i name="e_0_energy">    -23.57962632 </i>
   </energy>
  </scstep>
  <scstep>
   <time name="diag">    0.05    0.05</time>
   <time name="diis">    0.31    0.30</time>
   <time name="orth">    0.00    0.01</time>
   <time name="total">    0.83    0.83</time>
   <energy>
    <i name="e_fr_energy">    -22.98014147 </i>
    <i name="e_wo_entrp">    -22.98014147 </i>
    <i name="e_0_energy">    -22.98014147 </i>
   </energy>
  </scstep>
  <scstep>
   <time name="diag">    0.05    0.05</time>
   <time name="diis">    0.27    0.27</time>
   <time name="orth">    0.00    0.00</time>
   <time name="total">    0.82    0.82</time>
   <energy>
    <i name="e_fr_energy">    -22.93723054 </i>
    <i name="e_wo_entrp">    -22.93723054 </i>
    <i name="e_0_energy">    -22.93723054 </i>
   </energy>
  </scstep>
  <scstep>
   <time name="diag">    0.05    0.05</time>
   <time name="diis">    0.28    0.28</time>
   <time name="orth">    0.00    0.00</time>
   <time name="total">    0.88    0.88</time>
   <energy>
    <i name="e_fr_energy">    -22.93290449 </i>
    <i name="e_wo_entrp">    -22.93290449 </i>
    <i name="e_0_energy">    -22.93290449 </i>
   </energy>
  </scstep>
  <scstep>
   <time name="diag">    0.05    0.05</time>
   <time name="diis">    0.26    0.26</time>
   <time name="orth">    0.01    0.00</time>
   <time name="total">    0.86    0.86</time>
   <energy>
    <i name="e_fr_energy">    -22.93454942 </i>
    <i name="e_wo_entrp">    -22.93454942 </i>
    <i name="e_0_energy">    -22.93454942 </i>
   </energy>
  </scstep>
  <scstep>
   <time name="diag">    0.05    0.05</time>
   <time name="diis">    0.30    0.30</time>
   <time name="orth">    0.01    0.01</time>
   <time name="total">    0.86    0.86</time>
   <energy>
    <i name="e_fr_energy">    -22.93554525 </i>
    <i name="e_wo_entrp">    -22.93554525 </i>
    <i name="e_0_energy">    -22.93554525 </i>
   </energy>
  </scstep>
  <scstep>
   <time name="diag">    0.05    0.05</time>
   <time name="diis">    0.22    0.22</time>
   <time name="orth">    0.00    0.00</time>
   <time name="total">    0.76    0.76</time>
   <energy>
    <i name="e_fr_energy">    -22.94188897 </i>
    <i name="e_wo_entrp">    -22.94188897 </i>
    <i name="e_0_energy">    -22.94188897 </i>
   </energy>
  </scstep>
  <scstep>
   <time name="diag">    0.05    0.05</time>
   <time name="diis">    0.29    0.29</time>
   <time name="orth">    0.00    0.01</time>
   <time name="total">    0.89    0.90</time>
   <energy>
    <i name="e_fr_energy">    -22.94283251 </i>
    <i name="e_wo_entrp">    -22.94283251 </i>
    <i name="e_0_energy">    -22.94283251 </i>
   </energy>
  </scstep>
  <scstep>
   <time name="diag">    0.05    0.05</time>
   <time name="diis">    0.24    0.24</time>
   <time name="orth">    0.00    0.00</time>
   <time name="total">    0.78    0.78</time>
   <energy>
    <i name="e_fr_energy">    -22.94686668 </i>
    <i name="e_wo_entrp">    -22.94686668 </i>
    <i name="e_0_energy">    -22.94686668 </i>
   </energy>
  </scstep>
  <scstep>
   <time name="diag">    0.05    0.05</time>
   <time name="diis">    0.28    0.28</time>
   <time name="orth">    0.00    0.00</time>
   <time name="total">    0.82    0.82</time>
   <energy>
    <i name="e_fr_energy">    -22.94716976 </i>
    <i name="e_wo_entrp">    -22.94716976 </i>
    <i name="e_0_energy">    -22.94716976 </i>
   </energy>
  </scstep>
  <scstep>
   <time name="diag">    0.05    0.05</time>
   <time name="diis">    0.24    0.24</time>
   <time name="orth">    0.00    0.00</time>
   <time name="total">    0.82    0.82</time>
   <energy>
    <i name="e_fr_energy">    -22.94790675 </i>
    <i name="e_wo_entrp">    -22.94790675 </i>
    <i name="e_0_energy">    -22.94790675 </i>
   </energy>
  </scstep>
  <scstep>
   <time name="diag">    0.05    0.05</time>
   <time name="diis">    0.27    0.27</time>
   <time name="orth">    0.00    0.00</time>
   <time name="total">    0.82    0.82</time>
   <energy>
    <i name="e_fr_energy">    -22.94798477 </i>
    <i name="e_wo_entrp">    -22.94798477 </i>
    <i name="e_0_energy">    -22.94798477 </i>
   </energy>
  </scstep>
  <scstep>
   <time name="diag">    0.05    0.05</time>
   <time name="diis">    0.27    0.27</time>
   <time name="orth">    0.01    0.00</time>
   <time name="total">    0.84    0.84</time>
   <energy>
    <i name="e_fr_energy">    -22.94808961 </i>
    <i name="e_wo_entrp">    -22.94808961 </i>
    <i name="e_0_energy">    -22.94808961 </i>
   </energy>
  </scstep>
  <scstep>
   <time name="diag">    0.05    0.05</time>
   <time name="diis">    0.26    0.26</time>
   <time name="orth">    0.00    0.00</time>
   <time name="total">    1.02    1.02</time>
   <energy>
    <i name="e_fr_energy">    -22.94812668 </i>
    <i name="e_wo_entrp">    -22.94812668 </i>
    <i name="e_0_energy">    -22.94812668 </i>
   </energy>
  </scstep>
  <scstep>
   <time name="diag">    0.05    0.05</time>
   <time name="diis">    0.26    0.26</time>
   <time name="orth">    0.00    0.01</time>
   <time name="total">    0.81    0.81</time>
   <energy>
    <i name="e_fr_energy">    -22.94814698 </i>
    <i name="e_wo_entrp">    -22.94814698 </i>
    <i name="e_0_energy">    -22.94814698 </i>
   </energy>
  </scstep>
  <scstep>
   <time name="diag">    0.05    0.05</time>
   <time name="diis">    0.21    0.21</time>
   <time name="orth">    0.00    0.00</time>
   <time name="total">    0.76    0.76</time>
   <energy>
    <i name="e_fr_energy">    -22.94815075 </i>
    <i name="e_wo_entrp">    -22.94815075 </i>
    <i name="e_0_energy">    -22.94815075 </i>
   </energy>
  </scstep>
  <scstep>
   <time name="diag">    0.05    0.05</time>
   <time name="diis">    0.20    0.20</time>
   <time name="orth">    0.00    0.00</time>
   <time name="total">    0.82    0.82</time>
   <energy>
    <i name="e_fr_energy">    -22.94815469 </i>
    <i name="e_wo_entrp">    -22.94815469 </i>
    <i name="e_0_energy">    -22.94815469 </i>
   </energy>
  </scstep>
  <scstep>
   <time name="diag">    0.06    0.06</time>
   <time name="diis">    0.24    0.24</time>
   <time name="orth">    0.00    0.00</time>
   <time name="total">    0.65    0.66</time>
   <energy>
    <i name="alphaZ">      0.05743212 </i>
    <i name="ewald">    250.74811632 </i>
    <i name="hartreedc">   -505.18779766 </i>
    <i name="XCdc">     31.53709999 </i>
    <i name="pawpsdc">    834.98826094 </i>
    <i name="pawaedc">   -836.41702170 </i>
    <i name="eentropy">     -0.00000000 </i>
    <i name="bandstr">   -117.88595860 </i>
    <i name="atom">    319.21171307 </i>
    <i name="e_fr_energy">    -22.94815552 </i>
    <i name="e_wo_entrp">    -22.94815552 </i>
    <i name="e_0_energy">    -22.94815552 </i>
   </energy>
  </scstep>
  <structure>
   <crystal>
    <varray name="basis" >
     <v>      20.00000000       0.00000000       0.00000000 </v>
     <v>       0.00000000      20.00000000       0.00000000 </v>
     <v>       0.00000000       0.00000000      20.00000000 </v>
    </varray>
    <i name="volume">   8000.00000000 </i>
    <varray name="rec_basis" >
     <v>       0.05000000       0.00000000       0.00000000 </v>
     <v>       0.00000000       0.05000000       0.00000000 </v>
     <v>       0.00000000       0.00000000       0.05000000 </v>
    </varray>
   </crystal>
   <varray name="positions" >
    <v>       0.49950000       0.50000000       0.53019224 </v>
    <v>       0.50000000       0.50000000       0.46980776 </v>
    <v>       0.50000000       0.50000000       0.41625830 </v>
    <v>       0.50000000       0.50000000       0.58424170 </v>
   </varray>
  </structure>
  <varray name="forces" >
   <v>       0.04610278       0.00000000       0.37334103 </v>
   <v>      -0.02310760       0.00000000      -0.00209631 </v>
   <v>       0.00147295       0.00000000       0.00421807 </v>
   <v>      -0.02446813       0.00000000      -0.37546279 </v>
  </varray>
  <varray name="stress" >
   <v>      -0.08330654       0.00000000      -0.00081358 </v>
   <v>       0.00000000      -0.08322465       0.00000000 </v>
   <v>      -0.00081358       0.00000000      -0.14343640 </v>
  </varray>
  <energy>
   <i name="e_fr_energy">    -22.94815552 </i>
   <i name="e_wo_entrp">    -22.94815552 </i>
   <i name="e_0_energy">     -0.00000000 </i>
  </energy>
  <time name="totalsc">   19.31   19.54</time>
  <eigenvalues>
   <array>
    <dimension dim="1">band</dimension>
    <dimension dim="2">kpoint</dimension>
    <dimension dim="3">spin</dimension>
    <field>eigene</field>
    <field>occ</field>
    <set>
     <set comment="spin 1">
      <set comment="kpoint 1">
       <r>  -18.5691    1.0000 </r>
       <r>  -13.9644    1.0000 </r>
       <r>  -12.0887    1.0000 </r>
       <r>   -7.1604    1.0000 </r>
       <r>   -7.1603    1.0000 </r>
       <r>   -0.4217    0.0000 </r>
       <r>   -0.4205    0.0000 </r>
       <r>   -0.2117    0.0000 </r>
       <r>    0.0416    0.0000 </r>
       <r>    0.1237    0.0000 </r>
      </set>
     </set>
    </set>
   </array>
  </eigenvalues>
  <separator name="orbital magnetization" >
   <v name="MAGDIPOLOUT">      0.00000000      0.00000000      0.00000000</v>
  </separator>
  <dos>
   <i name="efermi">     -4.67027087 </i>
   <total>
    <array>
     <dimension dim="1">gridpoints</dimension>
     <dimension dim="2">spin</dimension>
     <field>energy</field>
     <field>total</field>
     <field>integrated</field>
     <set>
      <set comment="spin 1">
       <r>   -19.5691     0.0000     0.0000 </r>
       <r>   -19.5001     0.0000     0.0000 </r>
       <r>   -19.4311     0.0052     0.0004 </r>
       <r>   -19.3621     0.0052     0.0007 </r>
       <r>   -19.2932     0.0103     0.0014 </r>
       <r>   -19.2242     0.0206     0.0029 </r>
       <r>   -19.1552     0.0410     0.0057 </r>
       <r>   -19.0862     0.0813     0.0113 </r>
       <r>   -19.0173     0.1607     0.0224 </r>
       <r>   -18.9483     0.3150     0.0441 </r>
       <r>   -18.8793     0.6077     0.0860 </r>
       <r>   -18.8103     1.1368     0.1644 </r>
       <r>   -18.7414     2.0090     0.3030 </r>
       <r>   -18.6724     3.2179     0.5250 </r>
       <r>   -18.6034     4.4222     0.8300 </r>
       <r>   -18.5344     4.9510     1.1715 </r>
       <r>   -18.4655     4.4179     1.4762 </r>
       <r>   -18.3965     3.2122     1.6978 </r>
       <r>   -18.3275     2.0043     1.8360 </r>
       <r>   -18.2585     1.1338     1.9142 </r>
       <r>   -18.1896     0.6060     1.9560 </r>
       <r>   -18.1206     0.3141     1.9777 </r>
       <r>   -18.0516     0.1602     1.9887 </r>
       <r>   -17.9826     0.0811     1.9943 </r>
       <r>   -17.9137     0.0408     1.9972 </r>
       <r>   -17.8447     0.0205     1.9986 </r>
       <r>   -17.7757     0.0103     1.9993 </r>
       <r>   -17.7067     0.0000     2.0000 </r>
       <r>   -17.6377     0.0000     2.0000 </r>
       <r>   -17.5688     0.0000     2.0000 </r>
       <r>   -17.4998     0.0000     2.0000 </r>
       <r>   -17.4308     0.0000     2.0000 </r>
       <r>   -17.3618     0.0000     2.0000 </r>
       <r>   -17.2929     0.0000     2.0000 </r>
       <r>   -17.2239     0.0000     2.0000 </r>
       <r>   -17.1549     0.0000     2.0000 </r>
       <r>   -17.0859     0.0000     2.0000 </r>
       <r>   -17.0170     0.0000     2.0000 </r>
       <r>   -16.9480     0.0000     2.0000 </r>
       <r>   -16.8790     0.0000     2.0000 </r>
       <r>   -16.8100     0.0000     2.0000 </r>
       <r>   -16.7411     0.0000     2.0000 </r>
       <r>   -16.6721     0.0000     2.0000 </r>
       <r>   -16.6031     0.0000     2.0000 </r>
       <r>   -16.5341     0.0000     2.0000 </r>
       <r>   -16.4652     0.0000     2.0000 </r>
       <r>   -16.3962     0.0000     2.0000 </r>
       <r>   -16.3272     0.0000     2.0000 </r>
       <r>   -16.2582     0.0000     2.0000 </r>
       <r>   -16.1893     0.0000     2.0000 </r>
       <r>   -16.1203     0.0000     2.0000 </r>
       <r>   -16.0513     0.0000     2.0000 </r>
       <r>   -15.9823     0.0000     2.0000 </r>
       <r>   -15.9134     0.0000     2.0000 </r>
       <r>   -15.8444     0.0000     2.0000 </r>
       <r>   -15.7754     0.0000     2.0000 </r>
       <r>   -15.7064     0.0000     2.0000 </r>
       <r>   -15.6374     0.0000     2.0000 </r>
       <r>   -15.5685     0.0000     2.0000 </r>
       <r>   -15.4995     0.0000     2.0000 </r>
       <r>   -15.4305     0.0000     2.0000 </r>
       <r>   -15.3615     0.0000     2.0000 </r>
       <r>   -15.2926     0.0000     2.0000 </r>
       <r>   -15.2236     0.0000     2.0000 </r>
       <r>   -15.1546     0.0000     2.0000 </r>
       <r>   -15.0856     0.0000     2.0000 </r>
       <r>   -15.0167     0.0000     2.0000 </r>
       <r>   -14.9477     0.0000     2.0000 </r>
       <r>   -14.8787     0.0000     2.0000 </r>
       <r>   -14.8097     0.0062     2.0004 </r>
       <r>   -14.7408     0.0061     2.0008 </r>
       <r>   -14.6718     0.0122     2.0017 </r>
       <r>   -14.6028     0.0243     2.0034 </r>
       <r>   -14.5338     0.0484     2.0067 </r>
       <r>   -14.4649     0.0960     2.0133 </r>
       <r>   -14.3959     0.1894     2.0264 </r>
       <r>   -14.3269     0.3702     2.0519 </r>
       <r>   -14.2579     0.7100     2.1009 </r>
       <r>   -14.1890     1.3138     2.1915 </r>
       <r>   -14.1200     2.2771     2.3486 </r>
       <r>   -14.0510     3.5331     2.5923 </r>
       <r>   -13.9820     4.6386     2.9122 </r>
       <r>   -13.9130     4.9169     3.2514 </r>
       <r>   -13.8441     4.1598     3.5383 </r>
       <r>   -13.7751     2.8989     3.7383 </r>
       <r>   -13.7061     1.7581     3.8595 </r>
       <r>   -13.6371     0.9778     3.9270 </r>
       <r>   -13.5682     0.5178     3.9627 </r>
       <r>   -13.4992     0.2671     3.9811 </r>
       <r>   -13.4302     0.1359     3.9905 </r>
       <r>   -13.3612     0.0687     3.9952 </r>
       <r>   -13.2923     0.0346     3.9976 </r>
       <r>   -13.2233     0.0174     3.9988 </r>
       <r>   -13.1543     0.0000     4.0000 </r>
       <r>   -13.0853     0.0000     4.0000 </r>
       <r>   -13.0164     0.0000     4.0000 </r>
       <r>   -12.9474     0.0054     4.0004 </r>
       <r>   -12.8784     0.0054     4.0007 </r>
       <r>   -12.8094     0.0107     4.0015 </r>
       <r>   -12.7405     0.0213     4.0030 </r>
       <r>   -12.6715     0.0424     4.0059 </r>
       <r>   -12.6025     0.0841     4.0117 </r>
       <r>   -12.5335     0.1661     4.0231 </r>
       <r>   -12.4646     0.3255     4.0456 </r>
       <r>   -12.3956     0.6273     4.0889 </r>
       <r>   -12.3266     1.1709     4.1696 </r>
       <r>   -12.2576     2.0616     4.3118 </r>
       <r>   -12.1886     3.2819     4.5382 </r>
       <r>   -12.1197     4.4697     4.8465 </r>
       <r>   -12.0507     4.9495     5.1879 </r>
       <r>   -11.9817     4.3686     5.4892 </r>
       <r>   -11.9127     3.1483     5.7064 </r>
       <r>   -11.8438     1.9527     5.8411 </r>
       <r>   -11.7748     1.1006     5.9170 </r>
       <r>   -11.7058     0.5871     5.9575 </r>
       <r>   -11.6368     0.3040     5.9784 </r>
       <r>   -11.5679     0.1550     5.9891 </r>
       <r>   -11.4989     0.0784     5.9945 </r>
       <r>   -11.4299     0.0395     5.9973 </r>
       <r>   -11.3609     0.0198     5.9986 </r>
       <r>   -11.2920     0.0100     5.9993 </r>
       <r>   -11.2230     0.0000     6.0000 </r>
       <r>   -11.1540     0.0000     6.0000 </r>
       <r>   -11.0850     0.0000     6.0000 </r>
       <r>   -11.0161     0.0000     6.0000 </r>
       <r>   -10.9471     0.0000     6.0000 </r>
       <r>   -10.8781     0.0000     6.0000 </r>
       <r>   -10.8091     0.0000     6.0000 </r>
       <r>   -10.7402     0.0000     6.0000 </r>
       <r>   -10.6712     0.0000     6.0000 </r>
       <r>   -10.6022     0.0000     6.0000 </r>
       <r>   -10.5332     0.0000     6.0000 </r>
       <r>   -10.4643     0.0000     6.0000 </r>
       <r>   -10.3953     0.0000     6.0000 </r>
       <r>   -10.3263     0.0000     6.0000 </r>
       <r>   -10.2573     0.0000     6.0000 </r>
       <r>   -10.1883     0.0000     6.0000 </r>
       <r>   -10.1194     0.0000     6.0000 </r>
       <r>   -10.0504     0.0000     6.0000 </r>
       <r>    -9.9814     0.0000     6.0000 </r>
       <r>    -9.9124     0.0000     6.0000 </r>
       <r>    -9.8435     0.0000     6.0000 </r>
       <r>    -9.7745     0.0000     6.0000 </r>
       <r>    -9.7055     0.0000     6.0000 </r>
       <r>    -9.6365     0.0000     6.0000 </r>
       <r>    -9.5676     0.0000     6.0000 </r>
       <r>    -9.4986     0.0000     6.0000 </r>
       <r>    -9.4296     0.0000     6.0000 </r>
       <r>    -9.3606     0.0000     6.0000 </r>
       <r>    -9.2917     0.0000     6.0000 </r>
       <r>    -9.2227     0.0000     6.0000 </r>
       <r>    -9.1537     0.0000     6.0000 </r>
       <r>    -9.0847     0.0000     6.0000 </r>
       <r>    -9.0158     0.0000     6.0000 </r>
       <r>    -8.9468     0.0000     6.0000 </r>
       <r>    -8.8778     0.0000     6.0000 </r>
       <r>    -8.8088     0.0000     6.0000 </r>
       <r>    -8.7399     0.0000     6.0000 </r>
       <r>    -8.6709     0.0000     6.0000 </r>
       <r>    -8.6019     0.0000     6.0000 </r>
       <r>    -8.5329     0.0000     6.0000 </r>
       <r>    -8.4639     0.0000     6.0000 </r>
       <r>    -8.3950     0.0000     6.0000 </r>
       <r>    -8.3260     0.0000     6.0000 </r>
       <r>    -8.2570     0.0000     6.0000 </r>
       <r>    -8.1880     0.0000     6.0000 </r>
       <r>    -8.1191     0.0000     6.0000 </r>
       <r>    -8.0501     0.0000     6.0000 </r>
       <r>    -7.9811     0.0158     6.0011 </r>
       <r>    -7.9121     0.0157     6.0022 </r>
       <r>    -7.8432     0.0312     6.0043 </r>
       <r>    -7.7742     0.0622     6.0086 </r>
       <r>    -7.7052     0.1236     6.0171 </r>
       <r>    -7.6362     0.2447     6.0340 </r>
       <r>    -7.5673     0.4816     6.0672 </r>
       <r>    -7.4983     0.9363     6.1318 </r>
       <r>    -7.4293     1.7774     6.2544 </r>
       <r>    -7.3603     3.2267     6.4770 </r>
       <r>    -7.2914     5.4088     6.8501 </r>
       <r>    -7.2224     7.9593     7.3991 </r>
       <r>    -7.1534     9.7222     8.0697 </r>
       <r>    -7.0844     9.5000     8.7249 </r>
       <r>    -7.0155     7.4601     9.2395 </r>
       <r>    -6.9465     4.9151     9.5785 </r>
       <r>    -6.8775     2.8749     9.7768 </r>
       <r>    -6.8085     1.5658     9.8848 </r>
       <r>    -6.7395     0.8198     9.9414 </r>
       <r>    -6.6706     0.4203     9.9704 </r>
       <r>    -6.6016     0.2132     9.9851 </r>
       <r>    -6.5326     0.1076     9.9925 </r>
       <r>    -6.4636     0.0541     9.9962 </r>
       <r>    -6.3947     0.0272     9.9981 </r>
       <r>    -6.3257     0.0000    10.0000 </r>
       <r>    -6.2567     0.0000    10.0000 </r>
       <r>    -6.1877     0.0000    10.0000 </r>
       <r>    -6.1188     0.0000    10.0000 </r>
       <r>    -6.0498     0.0000    10.0000 </r>
       <r>    -5.9808     0.0000    10.0000 </r>
       <r>    -5.9118     0.0000    10.0000 </r>
       <r>    -5.8429     0.0000    10.0000 </r>
       <r>    -5.7739     0.0000    10.0000 </r>
       <r>    -5.7049     0.0000    10.0000 </r>
       <r>    -5.6359     0.0000    10.0000 </r>
       <r>    -5.5670     0.0000    10.0000 </r>
       <r>    -5.4980     0.0000    10.0000 </r>
       <r>    -5.4290     0.0000    10.0000 </r>
       <r>    -5.3600     0.0000    10.0000 </r>
       <r>    -5.2911     0.0000    10.0000 </r>
       <r>    -5.2221     0.0000    10.0000 </r>
       <r>    -5.1531     0.0000    10.0000 </r>
       <r>    -5.0841     0.0000    10.0000 </r>
       <r>    -5.0152     0.0000    10.0000 </r>
       <r>    -4.9462     0.0000    10.0000 </r>
       <r>    -4.8772     0.0000    10.0000 </r>
       <r>    -4.8082     0.0000    10.0000 </r>
       <r>    -4.7392     0.0000    10.0000 </r>
       <r>    -4.6703     0.0000    10.0000 </r>
       <r>    -4.6013     0.0000    10.0000 </r>
       <r>    -4.5323     0.0000    10.0000 </r>
       <r>    -4.4633     0.0000    10.0000 </r>
       <r>    -4.3944     0.0000    10.0000 </r>
       <r>    -4.3254     0.0000    10.0000 </r>
       <r>    -4.2564     0.0000    10.0000 </r>
       <r>    -4.1874     0.0000    10.0000 </r>
       <r>    -4.1185     0.0000    10.0000 </r>
       <r>    -4.0495     0.0000    10.0000 </r>
       <r>    -3.9805     0.0000    10.0000 </r>
       <r>    -3.9115     0.0000    10.0000 </r>
       <r>    -3.8426     0.0000    10.0000 </r>
       <r>    -3.7736     0.0000    10.0000 </r>
       <r>    -3.7046     0.0000    10.0000 </r>
       <r>    -3.6356     0.0000    10.0000 </r>
       <r>    -3.5667     0.0000    10.0000 </r>
       <r>    -3.4977     0.0000    10.0000 </r>
       <r>    -3.4287     0.0000    10.0000 </r>
       <r>    -3.3597     0.0000    10.0000 </r>
       <r>    -3.2908     0.0000    10.0000 </r>
       <r>    -3.2218     0.0000    10.0000 </r>
       <r>    -3.1528     0.0000    10.0000 </r>
       <r>    -3.0838     0.0000    10.0000 </r>
       <r>    -3.0148     0.0000    10.0000 </r>
       <r>    -2.9459     0.0000    10.0000 </r>
       <r>    -2.8769     0.0000    10.0000 </r>
       <r>    -2.8079     0.0000    10.0000 </r>
       <r>    -2.7389     0.0000    10.0000 </r>
       <r>    -2.6700     0.0000    10.0000 </r>
       <r>    -2.6010     0.0000    10.0000 </r>
       <r>    -2.5320     0.0000    10.0000 </r>
       <r>    -2.4630     0.0000    10.0000 </r>
       <r>    -2.3941     0.0000    10.0000 </r>
       <r>    -2.3251     0.0000    10.0000 </r>
       <r>    -2.2561     0.0000    10.0000 </r>
       <r>    -2.1871     0.0000    10.0000 </r>
       <r>    -2.1182     0.0000    10.0000 </r>
       <r>    -2.0492     0.0000    10.0000 </r>
       <r>    -1.9802     0.0000    10.0000 </r>
       <r>    -1.9112     0.0000    10.0000 </r>
       <r>    -1.8423     0.0000    10.0000 </r>
       <r>    -1.7733     0.0000    10.0000 </r>
       <r>    -1.7043     0.0000    10.0000 </r>
       <r>    -1.6353     0.0000    10.0000 </r>
       <r>    -1.5664     0.0000    10.0000 </r>
       <r>    -1.4974     0.0000    10.0000 </r>
       <r>    -1.4284     0.0000    10.0000 </r>
       <r>    -1.3594     0.0000    10.0000 </r>
       <r>    -1.2904     0.0049    10.0003 </r>
       <r>    -1.2215     0.0145    10.0013 </r>
       <r>    -1.1525     0.0192    10.0027 </r>
       <r>    -1.0835     0.0383    10.0053 </r>
       <r>    -1.0145     0.0857    10.0112 </r>
       <r>    -0.9456     0.1607    10.0223 </r>
       <r>    -0.8766     0.3179    10.0442 </r>
       <r>    -0.8076     0.6304    10.0877 </r>
       <r>    -0.7386     1.2204    10.1719 </r>
       <r>    -0.6697     2.2959    10.3303 </r>
       <r>    -0.6007     4.1189    10.6144 </r>
       <r>    -0.5317     6.7841    11.0823 </r>
       <r>    -0.4627     9.8060    11.7587 </r>
       <r>    -0.3938    12.0153    12.5874 </r>
       <r>    -0.3248    12.5862    13.4556 </r>
       <r>    -0.2558    11.9731    14.2814 </r>
       <r>    -0.1868    11.0522    15.0438 </r>
       <r>    -0.1179    10.3124    15.7551 </r>
       <r>    -0.0489    10.1575    16.4557 </r>
       <r>     0.0201    10.6366    17.1894 </r>
       <r>     0.0891    10.9273    17.9431 </r>
       <r>     0.1580    10.0124    18.6337 </r>
       <r>     0.2270     7.8269    19.1736 </r>
       <r>     0.2960     5.2522    19.5358 </r>
       <r>     0.3650     3.1330    19.7520 </r>
       <r>     0.4339     1.7191    19.8721 </r>
       <r>     0.5029     0.9078    19.9347 </r>
       <r>     0.5719     0.4676    19.9669 </r>
       <r>     0.6409     0.2321    19.9837 </r>
       <r>     0.7099     0.1172    19.9918 </r>
       <r>     0.7788     0.0590    19.9959 </r>
       <r>     0.8478     0.0206    19.9986 </r>
       <r>     0.9168     0.0103    19.9993 </r>
       <r>     0.9858     0.0000    20.0000 </r>
       <r>     1.0547     0.0000    20.0000 </r>
       <r>     1.1237     0.0000    20.0000 </r>
      </set>
     </set>
    </array>
   </total>
  </dos>
 </calculation>
 <structure name="finalpos" >
  <crystal>
   <varray name="basis" >
    <v>      20.00000000       0.00000000       0.00000000 </v>
    <v>       0.00000000      20.00000000       0.00000000 </v>
    <v>       0.00000000       0.00000000      20.00000000 </v>
   </varray>
   <i name="volume">   8000.00000000 </i>
   <varray name="rec_basis" >
    <v>       0.05000000       0.00000000       0.00000000 </v>
    <v>       0.00000000       0.05000000       0.00000000 </v>
    <v>       0.00000000       0.00000000       0.05000000 </v>
   </varray>
  </crystal>
  <varray name="positions" >
   <v>       0.49950000       0.50000000       0.53019224 </v>
   <v>       0.50000000       0.50000000       0.46980776 </v>
   <v>       0.50000000       0.50000000       0.41625830 </v>
   <v>       0.50000000       0.50000000       0.58424170 </v>
  </varray>
 </structure>
</modeling>
