unknown system                          
           1
    20.000000    0.000000    0.000000
     0.000000   20.000000    0.000000
     0.000000    0.000000   20.000000
   C    H 
   2   2
Direct configuration=     1
   0.49950000  0.50000000  0.53019224
   0.50000000  0.50000000  0.46980776
   0.50000000  0.50000000  0.41625830
   0.50000000  0.50000000  0.58424170
