<?xml version="1.0" encoding="ISO-8859-1"?>
<modeling>
 <generator>
  <i name="program" type="string">vasp </i>
  <i name="version" type="string">5.4.1  </i>
  <i name="subversion" type="string">24Jun15 (build Oct 10 2016 12:42:00) complex                          parallel </i>
  <i name="platform" type="string">IFC91_ompi </i>
  <i name="date" type="string">2018 07 06 </i>
  <i name="time" type="string">00:43:09 </i>
 </generator>
 <incar>
  <i type="string" name="PREC">normal</i>
  <i type="string" name="ALGO"> fast</i>
  <i type="int" name="ISPIN">     1</i>
  <i type="int" name="NELMDL">    -4</i>
  <i type="int" name="NELMIN">     4</i>
  <i name="EDIFF">      0.00000100</i>
  <i name="ENCUT">    400.00000000</i>
  <i type="string" name="LREAL"> auto</i>
  <i type="int" name="ISMEAR">    -1</i>
  <i name="SIGMA">      0.10000000</i>
  <i type="logical" name="LWAVE"> F  </i>
  <i type="logical" name="LCHARG"> F  </i>
  <v type="int" name="KPOINT_BSE">    -1     0     0     0</v>
  <i type="string" name="GGA"> PE</i>
 </incar>
 <kpoints>
  <generation param="Monkhorst-Pack">
   <v type="int" name="divisions">       1        1        1 </v>
   <v name="usershift">      0.00000000       0.00000000       0.00000000 </v>
   <v name="genvec1">      1.00000000       0.00000000       0.00000000 </v>
   <v name="genvec2">      0.00000000       1.00000000       0.00000000 </v>
   <v name="genvec3">      0.00000000       0.00000000       1.00000000 </v>
   <v name="shift">      0.00000000       0.00000000       0.00000000 </v>
  </generation>
  <varray name="kpointlist" >
   <v>       0.00000000       0.00000000       0.00000000 </v>
  </varray>
  <varray name="weights" >
   <v>       1.00000000 </v>
  </varray>
 </kpoints>
 <parameters>
  <separator name="general" >
   <i type="string" name="SYSTEM">unknown system</i>
   <i type="logical" name="LCOMPAT"> F  </i>
  </separator>
  <separator name="electronic" >
   <i type="string" name="PREC">normal</i>
   <i name="ENMAX">    400.00000000</i>
   <i name="ENAUG">    644.87300000</i>
   <i name="EDIFF">      0.00000100</i>
   <i type="int" name="IALGO">    68</i>
   <i type="int" name="IWAVPR">    10</i>
   <i type="int" name="NBANDS">    15</i>
   <i name="NELECT">     14.00000000</i>
   <i type="int" name="TURBO">     0</i>
   <i type="int" name="IRESTART">     0</i>
   <i type="int" name="NREBOOT">     0</i>
   <i type="int" name="NMIN">     0</i>
   <i name="EREF">      0.00000000</i>
   <separator name="electronic smearing" >
    <i type="int" name="ISMEAR">    -1</i>
    <i name="SIGMA">      0.10000000</i>
    <i name="KSPACING">      0.50000000</i>
    <i type="logical" name="KGAMMA"> T  </i>
   </separator>
   <separator name="electronic projectors" >
    <i type="logical" name="LREAL"> T  </i>
    <v name="ROPT">     -0.00050000     -0.00050000</v>
    <i type="int" name="LMAXPAW">  -100</i>
    <i type="int" name="LMAXMIX">     2</i>
    <i type="logical" name="NLSPLINE"> F  </i>
   </separator>
   <separator name="electronic startup" >
    <i type="int" name="ISTART">     0</i>
    <i type="int" name="ICHARG">     2</i>
    <i type="int" name="INIWAV">     1</i>
   </separator>
   <separator name="electronic spin" >
    <i type="int" name="ISPIN">     1</i>
    <i type="logical" name="LNONCOLLINEAR"> F  </i>
    <v name="MAGMOM">      1.00000000      1.00000000      1.00000000      1.00000000      1.00000000      1.00000000      1.00000000      1.00000000</v>
    <i name="NUPDOWN">     -1.00000000</i>
    <i type="logical" name="LSORBIT"> F  </i>
    <v name="SAXIS">      0.00000000      0.00000000      1.00000000</v>
    <i type="logical" name="LSPIRAL"> F  </i>
    <v name="QSPIRAL">      0.00000000      0.00000000      0.00000000</v>
    <i type="logical" name="LZEROZ"> F  </i>
   </separator>
   <separator name="electronic exchange-correlation" >
    <i type="logical" name="LASPH"> F  </i>
    <i type="logical" name="LMETAGGA"> F  </i>
   </separator>
   <separator name="electronic convergence" >
    <i type="int" name="NELM">    60</i>
    <i type="int" name="NELMDL">    -4</i>
    <i type="int" name="NELMIN">     4</i>
    <i name="ENINI">    400.00000000</i>
    <separator name="electronic convergence detail" >
     <i type="logical" name="LDIAG"> T  </i>
     <i type="logical" name="LSUBROT"> F  </i>
     <i name="WEIMIN">      0.00000000</i>
     <i name="EBREAK">      0.00000002</i>
     <i name="DEPER">      0.30000000</i>
     <i type="int" name="NRMM">     4</i>
     <i name="TIME">      0.40000000</i>
    </separator>
   </separator>
   <separator name="electronic mixer" >
    <i name="AMIX">      0.40000000</i>
    <i name="BMIX">      1.00000000</i>
    <i name="AMIN">      0.10000000</i>
    <i name="AMIX_MAG">      1.60000000</i>
    <i name="BMIX_MAG">      1.00000000</i>
    <separator name="electronic mixer details" >
     <i type="int" name="IMIX">     4</i>
     <i type="logical" name="MIXFIRST"> F  </i>
     <i type="int" name="MAXMIX">   -45</i>
     <i name="WC">    100.00000000</i>
     <i type="int" name="INIMIX">     1</i>
     <i type="int" name="MIXPRE">     1</i>
     <i type="int" name="MREMOVE">     5</i>
    </separator>
   </separator>
   <separator name="electronic dipolcorrection" >
    <i type="logical" name="LDIPOL"> F  </i>
    <i type="logical" name="LMONO"> F  </i>
    <i type="int" name="IDIPOL">     0</i>
    <i name="EPSILON">      1.00000000</i>
    <v name="DIPOL">   -100.00000000   -100.00000000   -100.00000000</v>
    <i name="EFIELD">      0.00000000</i>
   </separator>
  </separator>
  <separator name="grids" >
   <i type="int" name="NGX">    98</i>
   <i type="int" name="NGY">    98</i>
   <i type="int" name="NGZ">    98</i>
   <i type="int" name="NGXF">   196</i>
   <i type="int" name="NGYF">   196</i>
   <i type="int" name="NGZF">   196</i>
   <i type="logical" name="ADDGRID"> F  </i>
  </separator>
  <separator name="ionic" >
   <i type="int" name="NSW">     0</i>
   <i type="int" name="IBRION">    -1</i>
   <i type="int" name="ISIF">     2</i>
   <i name="PSTRESS">      0.00000000</i>
   <i name="EDIFFG">      0.00001000</i>
   <i type="int" name="NFREE">     0</i>
   <i name="POTIM">      0.50000000</i>
   <i name="SMASS">     -3.00000000</i>
   <i name="SCALEE">      1.00000000</i>
  </separator>
  <separator name="ionic md" >
   <i name="TEBEG">      0.00010000</i>
   <i name="TEEND">      0.00010000</i>
   <i type="int" name="NBLOCK">     1</i>
   <i type="int" name="KBLOCK">     1</i>
   <i type="int" name="NPACO">   256</i>
   <i name="APACO">     16.00000000</i>
  </separator>
  <separator name="symmetry" >
   <i type="int" name="ISYM">     2</i>
   <i name="SYMPREC">      0.00001000</i>
  </separator>
  <separator name="dos" >
   <i type="logical" name="LORBIT"> F  </i>
   <v name="RWIGS">     -1.00000000     -1.00000000</v>
   <i type="int" name="NEDOS">   301</i>
   <i name="EMIN">     10.00000000</i>
   <i name="EMAX">    -10.00000000</i>
   <i name="EFERMI">      0.00000000</i>
  </separator>
  <separator name="writing" >
   <i type="int" name="NWRITE">     2</i>
   <i type="logical" name="LWAVE"> F  </i>
   <i type="logical" name="LCHARG"> F  </i>
   <i type="logical" name="LPARD"> F  </i>
   <i type="logical" name="LVTOT"> F  </i>
   <i type="logical" name="LVHAR"> F  </i>
   <i type="logical" name="LELF"> F  </i>
   <i type="logical" name="LOPTICS"> F  </i>
   <v name="STM">      0.00000000      0.00000000      0.00000000      0.00000000      0.00000000      0.00000000      0.00000000</v>
  </separator>
  <separator name="performance" >
   <i type="int" name="NPAR">     5</i>
   <i type="int" name="NSIM">     4</i>
   <i type="int" name="NBLK">    -1</i>
   <i type="logical" name="LPLANE"> T  </i>
   <i type="logical" name="LSCALAPACK"> T  </i>
   <i type="logical" name="LSCAAWARE"> F  </i>
   <i type="logical" name="LSCALU"> F  </i>
   <i type="logical" name="LASYNC"> F  </i>
   <i type="logical" name="LORBITALREAL"> F  </i>
  </separator>
  <separator name="miscellaneous" >
   <i type="int" name="IDIOT">     3</i>
   <i type="logical" name="LMUSIC"> F  </i>
   <v name="POMASS">     12.01100000      1.00000000</v>
   <v name="DARWINR">      0.00000000      0.00000000</v>
   <v name="DARWINV">      1.00000000      1.00000000</v>
   <i type="logical" name="LCORR"> T  </i>
  </separator>
  <i type="logical" name="GGA_COMPAT"> T  </i>
  <i type="logical" name="LBERRY"> F  </i>
  <i type="int" name="ICORELEVEL">     0</i>
  <i type="logical" name="LDAU"> F  </i>
  <i type="int" name="I_CONSTRAINED_M">     0</i>
  <separator name="electronic exchange-correlation" >
   <i type="string" name="GGA">PE</i>
   <i type="int" name="VOSKOWN">     0</i>
   <i type="logical" name="LHFCALC"> F  </i>
   <i type="string" name="PRECFOCK"></i>
   <i type="logical" name="LSYMGRAD"> F  </i>
   <i type="logical" name="LHFONE"> F  </i>
   <i type="logical" name="LRHFCALC"> F  </i>
   <i type="logical" name="LTHOMAS"> F  </i>
   <i type="logical" name="LMODELHF"> F  </i>
   <i name="ENCUT4O">     -1.00000000</i>
   <i type="int" name="EXXOEP">     0</i>
   <i type="int" name="FOURORBIT">     0</i>
   <i name="AEXX">      0.00000000</i>
   <i name="HFALPHA">      0.00000000</i>
   <i name="MCALPHA">      0.00000000</i>
   <i name="ALDAX">      1.00000000</i>
   <i name="AGGAX">      1.00000000</i>
   <i name="ALDAC">      1.00000000</i>
   <i name="AGGAC">      1.00000000</i>
   <i type="int" name="NKREDX">     1</i>
   <i type="int" name="NKREDY">     1</i>
   <i type="int" name="NKREDZ">     1</i>
   <i type="logical" name="SHIFTRED"> F  </i>
   <i type="logical" name="ODDONLY"> F  </i>
   <i type="logical" name="EVENONLY"> F  </i>
   <i type="int" name="LMAXFOCK">     0</i>
   <i type="int" name="NMAXFOCKAE">     0</i>
   <i type="logical" name="LFOCKAEDFT"> F  </i>
   <i name="HFSCREEN">      0.00000000</i>
   <i name="HFSCREENC">      0.00000000</i>
   <i type="int" name="NBANDSGWLOW">     0</i>
  </separator>
  <separator name="vdW DFT" >
   <i type="logical" name="LUSE_VDW"> F  </i>
   <i name="Zab_VDW">     -0.84910000</i>
   <i name="PARAM1">      0.12340000</i>
   <i name="PARAM2">      1.00000000</i>
   <i name="PARAM3">      0.00000000</i>
  </separator>
  <separator name="model GW" >
   <i type="int" name="MODEL_GW">     0</i>
   <i name="MODEL_EPS0">    600.00000000</i>
   <i name="MODEL_ALPHA">      1.00000000</i>
  </separator>
  <separator name="linear response parameters" >
   <i type="logical" name="LEPSILON"> F  </i>
   <i type="logical" name="LRPA"> F  </i>
   <i type="logical" name="LNABLA"> F  </i>
   <i type="logical" name="LVEL"> F  </i>
   <i type="int" name="KINTER">     0</i>
   <i name="CSHIFT">      0.10000000</i>
   <i name="OMEGAMAX">     -1.00000000</i>
   <i name="DEG_THRESHOLD">      0.00200000</i>
  </separator>
  <separator name="orbital magnetization" >
   <i type="logical" name="NUCIND"> F  </i>
   <v name="MAGPOS">      0.00000000      0.00000000      0.00000000</v>
   <i type="logical" name="LNICSALL"> T  </i>
   <i type="logical" name="ORBITALMAG"> F  </i>
   <i type="logical" name="LMAGBLOCH"> F  </i>
   <i type="logical" name="LCHIMAG"> F  </i>
   <i type="logical" name="LGAUGE"> T  </i>
   <i type="int" name="MAGATOM">     0</i>
   <v name="MAGDIPOL">      0.00000000      0.00000000      0.00000000</v>
   <v name="AVECCONST">      0.00000000      0.00000000      0.00000000</v>
  </separator>
  <separator name="response functions" >
   <i type="logical" name="LADDER"> F  </i>
   <i type="logical" name="LFXC"> F  </i>
   <i type="logical" name="LHARTREE"> T  </i>
   <i type="int" name="IBSE">     0</i>
   <v type="int" name="KPOINT">    -1     0     0     0</v>
   <i type="logical" name="LTCTE"> F  </i>
   <i type="logical" name="LTETE"> F  </i>
   <i type="logical" name="LTRIPLET"> F  </i>
   <i type="logical" name="LFXCEPS"> F  </i>
   <i type="logical" name="LFXHEG"> F  </i>
   <i type="int" name="NATURALO">     0</i>
   <i type="logical" name="L2ORDER"> F  </i>
   <i type="logical" name="LUSEW"> F  </i>
   <i name="ENCUTGW">     -2.00000000</i>
   <i name="ENCUTGWSOFT">     -2.00000000</i>
   <i name="ENCUTLF">     -1.00000000</i>
   <i type="int" name="LMAXMP2">    -1</i>
   <i name="SCISSOR">      0.00000000</i>
   <i type="int" name="NOMEGA">     0</i>
   <i type="int" name="NOMEGAR">     0</i>
   <i type="int" name="NBANDSGW">    -1</i>
   <i type="int" name="NBANDSO">    -1</i>
   <i type="int" name="NBANDSV">    -1</i>
   <i type="int" name="NELM">     1</i>
   <i type="int" name="NELMHF">     1</i>
   <i type="int" name="DIM">     3</i>
   <i type="int" name="ANTIRES">     0</i>
   <i name="OMEGAMAX">    -30.00000000</i>
   <i name="OMEGAMIN">    -30.00000000</i>
   <i name="OMEGATL">   -200.00000000</i>
   <i type="int" name="OMEGAGRID">     0</i>
   <i name="CSHIFT">     -0.10000000</i>
   <i type="logical" name="SELFENERGY"> F  </i>
   <i type="logical" name="LSPECTRAL"> F  </i>
   <i type="logical" name="LSPECTRALGW"> F  </i>
   <i type="logical" name="LSINGLES"> F  </i>
   <i type="logical" name="LFERMIGW"> F  </i>
   <i type="logical" name="ODDONLYGW"> F  </i>
   <i type="logical" name="EVENONLYGW"> F  </i>
   <i type="int" name="NKREDLFX">     1</i>
   <i type="int" name="NKREDLFY">     1</i>
   <i type="int" name="NKREDLFZ">     1</i>
   <i type="int" name="MAXMEM">  1800</i>
   <i type="int" name="TELESCOPE">     0</i>
   <i type="int" name="TAUPAR">     1</i>
   <i type="int" name="OMEGAPAR">    -1</i>
   <i name="LAMBDA">      1.00000000</i>
  </separator>
  <separator name="External order field" >
   <i name="OFIELD_KAPPA">      0.00000000</i>
   <v name="OFIELD_K">      0.00000000      0.00000000      0.00000000</v>
   <i name="OFIELD_Q6_NEAR">      0.00000000</i>
   <i name="OFIELD_Q6_FAR">      0.00000000</i>
   <i name="OFIELD_A">      0.00000000</i>
  </separator>
 </parameters>
 <atominfo>
  <atoms>       8 </atoms>
  <types>       2 </types>
  <array name="atoms" >
   <dimension dim="1">ion</dimension>
   <field type="string">element</field>
   <field type="int">atomtype</field>
   <set>
    <rc><c>C </c><c>   1</c></rc>
    <rc><c>C </c><c>   1</c></rc>
    <rc><c>H </c><c>   2</c></rc>
    <rc><c>H </c><c>   2</c></rc>
    <rc><c>H </c><c>   2</c></rc>
    <rc><c>H </c><c>   2</c></rc>
    <rc><c>H </c><c>   2</c></rc>
    <rc><c>H </c><c>   2</c></rc>
   </set>
  </array>
  <array name="atomtypes" >
   <dimension dim="1">type</dimension>
   <field type="int">atomspertype</field>
   <field type="string">element</field>
   <field>mass</field>
   <field>valence</field>
   <field type="string">pseudopotential</field>
   <set>
    <rc><c>   2</c><c>C </c><c>     12.01100000</c><c>      4.00000000</c><c>  PAW_PBE C 08Apr2002                   </c></rc>
    <rc><c>   6</c><c>H </c><c>      1.00000000</c><c>      1.00000000</c><c>  PAW_PBE H 15Jun2001                   </c></rc>
   </set>
  </array>
 </atominfo>
 <structure name="initialpos" >
  <crystal>
   <varray name="basis" >
    <v>      20.00000000       0.00000000       0.00000000 </v>
    <v>       0.00000000      20.00000000       0.00000000 </v>
    <v>       0.00000000       0.00000000      20.00000000 </v>
   </varray>
   <i name="volume">   8000.00000000 </i>
   <varray name="rec_basis" >
    <v>       0.05000000       0.00000000       0.00000000 </v>
    <v>       0.00000000       0.05000000       0.00000000 </v>
    <v>       0.00000000       0.00000000       0.05000000 </v>
   </varray>
  </crystal>
  <varray name="positions" >
   <v>       0.50000000       0.49999967       0.53820460 </v>
   <v>       0.50000000       0.50000033       0.46179540 </v>
   <v>       0.50000000       0.55120308       0.55832913 </v>
   <v>       0.45565178       0.47440067       0.55832838 </v>
   <v>       0.54434822       0.47440067       0.55832838 </v>
   <v>       0.50000000       0.44879692       0.44167087 </v>
   <v>       0.45565178       0.52559933       0.44167162 </v>
   <v>       0.54434822       0.52559933       0.44217162 </v>
  </varray>
 </structure>
 <calculation>
  <scstep>
   <time name="dav">    0.51    0.51</time>
   <time name="total">    0.87    0.88</time>
   <energy>
    <i name="alphaZ">      0.09745814 </i>
    <i name="ewald">    520.64997266 </i>
    <i name="hartreedc">   -739.96650849 </i>
    <i name="XCdc">     39.85291534 </i>
    <i name="pawpsdc">    229.84825738 </i>
    <i name="pawaedc">   -231.04033570 </i>
    <i name="eentropy">     -0.00062055 </i>
    <i name="bandstr">   -148.75609511 </i>
    <i name="atom">    369.12624373 </i>
    <i name="e_fr_energy">     39.81128740 </i>
    <i name="e_wo_entrp">     39.81190795 </i>
    <i name="e_0_energy">     39.81159768 </i>
   </energy>
  </scstep>
  <scstep>
   <time name="dav">    0.57    0.57</time>
   <time name="total">    0.57    0.60</time>
   <energy>
    <i name="e_fr_energy">    -35.78472073 </i>
    <i name="e_wo_entrp">    -35.78472073 </i>
    <i name="e_0_energy">    -35.78472073 </i>
   </energy>
  </scstep>
  <scstep>
   <time name="dav">    0.42    0.42</time>
   <time name="total">    0.42    0.44</time>
   <energy>
    <i name="e_fr_energy">    -45.38130566 </i>
    <i name="e_wo_entrp">    -45.38130566 </i>
    <i name="e_0_energy">    -45.38130566 </i>
   </energy>
  </scstep>
  <scstep>
   <time name="dav">    0.56    0.56</time>
   <time name="total">    0.63    0.65</time>
   <energy>
    <i name="e_fr_energy">    -45.83376898 </i>
    <i name="e_wo_entrp">    -45.83376898 </i>
    <i name="e_0_energy">    -45.83376898 </i>
   </energy>
  </scstep>
  <scstep>
   <time name="diag">    0.20    0.32</time>
   <time name="diis">    0.43    0.43</time>
   <time name="orth">    0.00    0.01</time>
   <time name="total">    1.03    1.18</time>
   <energy>
    <i name="e_fr_energy">    -41.59319793 </i>
    <i name="e_wo_entrp">    -41.59319793 </i>
    <i name="e_0_energy">    -41.59319793 </i>
   </energy>
  </scstep>
  <scstep>
   <time name="diag">    0.08    0.08</time>
   <time name="diis">    0.44    0.44</time>
   <time name="orth">    0.01    0.01</time>
   <time name="total">    0.92    0.95</time>
   <energy>
    <i name="e_fr_energy">    -40.69839788 </i>
    <i name="e_wo_entrp">    -40.69839788 </i>
    <i name="e_0_energy">    -40.69839788 </i>
   </energy>
  </scstep>
  <scstep>
   <time name="diag">    0.08    0.08</time>
   <time name="diis">    0.43    0.43</time>
   <time name="orth">    0.00    0.01</time>
   <time name="total">    0.92    0.94</time>
   <energy>
    <i name="e_fr_energy">    -40.49728080 </i>
    <i name="e_wo_entrp">    -40.49728080 </i>
    <i name="e_0_energy">    -40.49728080 </i>
   </energy>
  </scstep>
  <scstep>
   <time name="diag">    0.08    0.08</time>
   <time name="diis">    0.42    0.42</time>
   <time name="orth">    0.00    0.01</time>
   <time name="total">    0.96    0.98</time>
   <energy>
    <i name="e_fr_energy">    -40.48464330 </i>
    <i name="e_wo_entrp">    -40.48464330 </i>
    <i name="e_0_energy">    -40.48464330 </i>
   </energy>
  </scstep>
  <scstep>
   <time name="diag">    0.08    0.08</time>
   <time name="diis">    0.36    0.36</time>
   <time name="orth">    0.01    0.01</time>
   <time name="total">    0.92    0.94</time>
   <energy>
    <i name="e_fr_energy">    -40.47917397 </i>
    <i name="e_wo_entrp">    -40.47917397 </i>
    <i name="e_0_energy">    -40.47917397 </i>
   </energy>
  </scstep>
  <scstep>
   <time name="diag">    0.08    0.08</time>
   <time name="diis">    0.40    0.40</time>
   <time name="orth">    0.00    0.01</time>
   <time name="total">    0.90    0.92</time>
   <energy>
    <i name="e_fr_energy">    -40.47968663 </i>
    <i name="e_wo_entrp">    -40.47968663 </i>
    <i name="e_0_energy">    -40.47968663 </i>
   </energy>
  </scstep>
  <scstep>
   <time name="diag">    0.08    0.08</time>
   <time name="diis">    0.30    0.30</time>
   <time name="orth">    0.00    0.00</time>
   <time name="total">    0.83    0.85</time>
   <energy>
    <i name="e_fr_energy">    -40.48354840 </i>
    <i name="e_wo_entrp">    -40.48354840 </i>
    <i name="e_0_energy">    -40.48354840 </i>
   </energy>
  </scstep>
  <scstep>
   <time name="diag">    0.07    0.08</time>
   <time name="diis">    0.35    0.35</time>
   <time name="orth">    0.00    0.01</time>
   <time name="total">    0.84    0.86</time>
   <energy>
    <i name="e_fr_energy">    -40.48966076 </i>
    <i name="e_wo_entrp">    -40.48966076 </i>
    <i name="e_0_energy">    -40.48966076 </i>
   </energy>
  </scstep>
  <scstep>
   <time name="diag">    0.07    0.08</time>
   <time name="diis">    0.32    0.32</time>
   <time name="orth">    0.01    0.01</time>
   <time name="total">    0.85    0.87</time>
   <energy>
    <i name="e_fr_energy">    -40.49280024 </i>
    <i name="e_wo_entrp">    -40.49280024 </i>
    <i name="e_0_energy">    -40.49280024 </i>
   </energy>
  </scstep>
  <scstep>
   <time name="diag">    0.14    0.14</time>
   <time name="diis">    0.33    0.33</time>
   <time name="orth">    0.01    0.01</time>
   <time name="total">    0.89    0.91</time>
   <energy>
    <i name="e_fr_energy">    -40.49454004 </i>
    <i name="e_wo_entrp">    -40.49454004 </i>
    <i name="e_0_energy">    -40.49454004 </i>
   </energy>
  </scstep>
  <scstep>
   <time name="diag">    0.08    0.08</time>
   <time name="diis">    0.39    0.39</time>
   <time name="orth">    0.06    0.06</time>
   <time name="total">    0.95    0.97</time>
   <energy>
    <i name="e_fr_energy">    -40.49472423 </i>
    <i name="e_wo_entrp">    -40.49472423 </i>
    <i name="e_0_energy">    -40.49472423 </i>
   </energy>
  </scstep>
  <scstep>
   <time name="diag">    0.08    0.08</time>
   <time name="diis">    0.32    0.32</time>
   <time name="orth">    0.01    0.01</time>
   <time name="total">    0.82    0.84</time>
   <energy>
    <i name="e_fr_energy">    -40.49510903 </i>
    <i name="e_wo_entrp">    -40.49510903 </i>
    <i name="e_0_energy">    -40.49510903 </i>
   </energy>
  </scstep>
  <scstep>
   <time name="diag">    0.08    0.08</time>
   <time name="diis">    0.43    0.43</time>
   <time name="orth">    0.00    0.01</time>
   <time name="total">    0.98    1.00</time>
   <energy>
    <i name="e_fr_energy">    -40.49517015 </i>
    <i name="e_wo_entrp">    -40.49517015 </i>
    <i name="e_0_energy">    -40.49517015 </i>
   </energy>
  </scstep>
  <scstep>
   <time name="diag">    0.08    0.08</time>
   <time name="diis">    0.34    0.34</time>
   <time name="orth">    0.00    0.01</time>
   <time name="total">    0.91    0.93</time>
   <energy>
    <i name="e_fr_energy">    -40.49524769 </i>
    <i name="e_wo_entrp">    -40.49524769 </i>
    <i name="e_0_energy">    -40.49524769 </i>
   </energy>
  </scstep>
  <scstep>
   <time name="diag">    0.08    0.08</time>
   <time name="diis">    0.38    0.39</time>
   <time name="orth">    0.00    0.01</time>
   <time name="total">    0.89    0.91</time>
   <energy>
    <i name="e_fr_energy">    -40.49526917 </i>
    <i name="e_wo_entrp">    -40.49526917 </i>
    <i name="e_0_energy">    -40.49526917 </i>
   </energy>
  </scstep>
  <scstep>
   <time name="diag">    0.08    0.08</time>
   <time name="diis">    0.34    0.34</time>
   <time name="orth">    0.00    0.01</time>
   <time name="total">    0.84    0.86</time>
   <energy>
    <i name="e_fr_energy">    -40.49527475 </i>
    <i name="e_wo_entrp">    -40.49527475 </i>
    <i name="e_0_energy">    -40.49527475 </i>
   </energy>
  </scstep>
  <scstep>
   <time name="diag">    0.35    0.56</time>
   <time name="diis">    0.36    0.36</time>
   <time name="orth">    0.01    0.01</time>
   <time name="total">    2.86    3.65</time>
   <energy>
    <i name="e_fr_energy">    -40.49527717 </i>
    <i name="e_wo_entrp">    -40.49527717 </i>
    <i name="e_0_energy">    -40.49527717 </i>
   </energy>
  </scstep>
  <scstep>
   <time name="diag">    0.08    0.08</time>
   <time name="diis">    0.29    0.29</time>
   <time name="orth">    0.01    0.01</time>
   <time name="total">    0.79    0.81</time>
   <energy>
    <i name="e_fr_energy">    -40.49527880 </i>
    <i name="e_wo_entrp">    -40.49527880 </i>
    <i name="e_0_energy">    -40.49527880 </i>
   </energy>
  </scstep>
  <scstep>
   <time name="diag">    0.08    0.08</time>
   <time name="diis">    0.35    0.35</time>
   <time name="orth">    0.01    0.01</time>
   <time name="total">    1.07    1.21</time>
   <energy>
    <i name="alphaZ">      0.09745814 </i>
    <i name="ewald">    520.64997266 </i>
    <i name="hartreedc">   -814.17994868 </i>
    <i name="XCdc">     44.16655060 </i>
    <i name="pawpsdc">    888.72533880 </i>
    <i name="pawaedc">   -890.23378840 </i>
    <i name="eentropy">     -0.00000000 </i>
    <i name="bandstr">   -158.84710569 </i>
    <i name="atom">    369.12624373 </i>
    <i name="e_fr_energy">    -40.49527884 </i>
    <i name="e_wo_entrp">    -40.49527884 </i>
    <i name="e_0_energy">    -40.49527884 </i>
   </energy>
  </scstep>
  <structure>
   <crystal>
    <varray name="basis" >
     <v>      20.00000000       0.00000000       0.00000000 </v>
     <v>       0.00000000      20.00000000       0.00000000 </v>
     <v>       0.00000000       0.00000000      20.00000000 </v>
    </varray>
    <i name="volume">   8000.00000000 </i>
    <varray name="rec_basis" >
     <v>       0.05000000       0.00000000       0.00000000 </v>
     <v>       0.00000000       0.05000000       0.00000000 </v>
     <v>       0.00000000       0.00000000       0.05000000 </v>
    </varray>
   </crystal>
   <varray name="positions" >
    <v>       0.50000000       0.49999967       0.53820460 </v>
    <v>       0.50000000       0.50000033       0.46179540 </v>
    <v>       0.50000000       0.55120308       0.55832913 </v>
    <v>       0.45565178       0.47440067       0.55832838 </v>
    <v>       0.54434822       0.47440067       0.55832838 </v>
    <v>       0.50000000       0.44879692       0.44167087 </v>
    <v>       0.45565178       0.52559933       0.44167162 </v>
    <v>       0.54434822       0.52559933       0.44217162 </v>
   </varray>
  </structure>
  <varray name="forces" >
   <v>      -0.02599327      -0.01475540      -0.00622515 </v>
   <v>      -0.06893314      -0.04005686       0.08838622 </v>
   <v>      -0.00007344       0.00061552      -0.00057912 </v>
   <v>       0.00064072       0.00027524       0.00699128 </v>
   <v>       0.00016059      -0.00027291      -0.00072276 </v>
   <v>       0.00901612       0.00409673      -0.00368605 </v>
   <v>       0.00840360       0.00565475      -0.00354232 </v>
   <v>       0.07677882       0.04444294      -0.08062211 </v>
  </varray>
  <varray name="stress" >
   <v>      -0.11068386       0.00671623      -0.01500576 </v>
   <v>       0.00671623      -0.11845715      -0.00855031 </v>
   <v>      -0.01500576      -0.00855031      -0.12152870 </v>
  </varray>
  <energy>
   <i name="e_fr_energy">    -40.49527884 </i>
   <i name="e_wo_entrp">    -40.49527884 </i>
   <i name="e_0_energy">     -0.00000000 </i>
  </energy>
  <time name="totalsc">   25.20   26.75</time>
  <eigenvalues>
   <array>
    <dimension dim="1">band</dimension>
    <dimension dim="2">kpoint</dimension>
    <dimension dim="3">spin</dimension>
    <field>eigene</field>
    <field>occ</field>
    <set>
     <set comment="spin 1">
      <set comment="kpoint 1">
       <r>  -18.4940    1.0000 </r>
       <r>  -14.9734    1.0000 </r>
       <r>  -10.4716    1.0000 </r>
       <r>  -10.4562    1.0000 </r>
       <r>   -8.8566    1.0000 </r>
       <r>   -8.0905    1.0000 </r>
       <r>   -8.0812    1.0000 </r>
       <r>   -0.4410    0.0000 </r>
       <r>    0.0765    0.0000 </r>
       <r>    0.0910    0.0000 </r>
       <r>    0.2317    0.0000 </r>
       <r>    0.2323    0.0000 </r>
       <r>    0.3429    0.0000 </r>
       <r>    0.3477    0.0000 </r>
       <r>    0.5033    0.0000 </r>
      </set>
     </set>
    </set>
   </array>
  </eigenvalues>
  <separator name="orbital magnetization" >
   <v name="MAGDIPOLOUT">      0.00000000      0.00000000      0.00000000</v>
  </separator>
  <dos>
   <i name="efermi">     -5.63579790 </i>
   <total>
    <array>
     <dimension dim="1">gridpoints</dimension>
     <dimension dim="2">spin</dimension>
     <field>energy</field>
     <field>total</field>
     <field>integrated</field>
     <set>
      <set comment="spin 1">
       <r>   -19.4940     0.0000     0.0000 </r>
       <r>   -19.4240     0.0000     0.0000 </r>
       <r>   -19.3540     0.0053     0.0004 </r>
       <r>   -19.2840     0.0053     0.0007 </r>
       <r>   -19.2141     0.0107     0.0015 </r>
       <r>   -19.1441     0.0216     0.0030 </r>
       <r>   -19.0741     0.0433     0.0060 </r>
       <r>   -19.0041     0.0868     0.0121 </r>
       <r>   -18.9341     0.1733     0.0242 </r>
       <r>   -18.8641     0.3426     0.0482 </r>
       <r>   -18.7941     0.6652     0.0948 </r>
       <r>   -18.7241     1.2475     0.1821 </r>
       <r>   -18.6541     2.1943     0.3357 </r>
       <r>   -18.5841     3.4570     0.5776 </r>
       <r>   -18.5141     4.6019     0.8997 </r>
       <r>   -18.4442     4.9231     1.2443 </r>
       <r>   -18.3742     4.1756     1.5365 </r>
       <r>   -18.3042     2.8989     1.7394 </r>
       <r>   -18.2342     1.7442     1.8615 </r>
       <r>   -18.1642     0.9605     1.9287 </r>
       <r>   -18.0942     0.5033     1.9640 </r>
       <r>   -18.0242     0.2568     1.9819 </r>
       <r>   -17.9542     0.1293     1.9910 </r>
       <r>   -17.8842     0.0647     1.9955 </r>
       <r>   -17.8142     0.0322     1.9978 </r>
       <r>   -17.7442     0.0160     1.9989 </r>
       <r>   -17.6743     0.0000     2.0000 </r>
       <r>   -17.6043     0.0000     2.0000 </r>
       <r>   -17.5343     0.0000     2.0000 </r>
       <r>   -17.4643     0.0000     2.0000 </r>
       <r>   -17.3943     0.0000     2.0000 </r>
       <r>   -17.3243     0.0000     2.0000 </r>
       <r>   -17.2543     0.0000     2.0000 </r>
       <r>   -17.1843     0.0000     2.0000 </r>
       <r>   -17.1143     0.0000     2.0000 </r>
       <r>   -17.0443     0.0000     2.0000 </r>
       <r>   -16.9743     0.0000     2.0000 </r>
       <r>   -16.9044     0.0000     2.0000 </r>
       <r>   -16.8344     0.0000     2.0000 </r>
       <r>   -16.7644     0.0000     2.0000 </r>
       <r>   -16.6944     0.0000     2.0000 </r>
       <r>   -16.6244     0.0000     2.0000 </r>
       <r>   -16.5544     0.0000     2.0000 </r>
       <r>   -16.4844     0.0000     2.0000 </r>
       <r>   -16.4144     0.0000     2.0000 </r>
       <r>   -16.3444     0.0000     2.0000 </r>
       <r>   -16.2744     0.0000     2.0000 </r>
       <r>   -16.2044     0.0000     2.0000 </r>
       <r>   -16.1345     0.0000     2.0000 </r>
       <r>   -16.0645     0.0000     2.0000 </r>
       <r>   -15.9945     0.0000     2.0000 </r>
       <r>   -15.9245     0.0000     2.0000 </r>
       <r>   -15.8545     0.0000     2.0000 </r>
       <r>   -15.7845     0.0086     2.0006 </r>
       <r>   -15.7145     0.0087     2.0012 </r>
       <r>   -15.6445     0.0175     2.0024 </r>
       <r>   -15.5745     0.0351     2.0049 </r>
       <r>   -15.5045     0.0705     2.0098 </r>
       <r>   -15.4345     0.1409     2.0197 </r>
       <r>   -15.3646     0.2795     2.0393 </r>
       <r>   -15.2946     0.5464     2.0775 </r>
       <r>   -15.2246     1.0380     2.1501 </r>
       <r>   -15.1546     1.8689     2.2809 </r>
       <r>   -15.0846     3.0612     2.4952 </r>
       <r>   -15.0146     4.3132     2.7971 </r>
       <r>   -14.9446     4.9450     3.1432 </r>
       <r>   -14.8746     4.4906     3.4575 </r>
       <r>   -14.8046     3.2929     3.6880 </r>
       <r>   -14.7346     2.0554     3.8318 </r>
       <r>   -14.6646     1.1567     3.9128 </r>
       <r>   -14.5947     0.6133     3.9557 </r>
       <r>   -14.5247     0.3149     3.9778 </r>
       <r>   -14.4547     0.1591     3.9889 </r>
       <r>   -14.3847     0.0797     3.9945 </r>
       <r>   -14.3147     0.0397     3.9972 </r>
       <r>   -14.2447     0.0198     3.9986 </r>
       <r>   -14.1747     0.0098     3.9993 </r>
       <r>   -14.1047     0.0000     4.0000 </r>
       <r>   -14.0347     0.0000     4.0000 </r>
       <r>   -13.9647     0.0000     4.0000 </r>
       <r>   -13.8947     0.0000     4.0000 </r>
       <r>   -13.8247     0.0000     4.0000 </r>
       <r>   -13.7548     0.0000     4.0000 </r>
       <r>   -13.6848     0.0000     4.0000 </r>
       <r>   -13.6148     0.0000     4.0000 </r>
       <r>   -13.5448     0.0000     4.0000 </r>
       <r>   -13.4748     0.0000     4.0000 </r>
       <r>   -13.4048     0.0000     4.0000 </r>
       <r>   -13.3348     0.0000     4.0000 </r>
       <r>   -13.2648     0.0000     4.0000 </r>
       <r>   -13.1948     0.0000     4.0000 </r>
       <r>   -13.1248     0.0000     4.0000 </r>
       <r>   -13.0548     0.0000     4.0000 </r>
       <r>   -12.9849     0.0000     4.0000 </r>
       <r>   -12.9149     0.0000     4.0000 </r>
       <r>   -12.8449     0.0000     4.0000 </r>
       <r>   -12.7749     0.0000     4.0000 </r>
       <r>   -12.7049     0.0000     4.0000 </r>
       <r>   -12.6349     0.0000     4.0000 </r>
       <r>   -12.5649     0.0000     4.0000 </r>
       <r>   -12.4949     0.0000     4.0000 </r>
       <r>   -12.4249     0.0000     4.0000 </r>
       <r>   -12.3549     0.0000     4.0000 </r>
       <r>   -12.2849     0.0000     4.0000 </r>
       <r>   -12.2150     0.0000     4.0000 </r>
       <r>   -12.1450     0.0000     4.0000 </r>
       <r>   -12.0750     0.0000     4.0000 </r>
       <r>   -12.0050     0.0000     4.0000 </r>
       <r>   -11.9350     0.0000     4.0000 </r>
       <r>   -11.8650     0.0000     4.0000 </r>
       <r>   -11.7950     0.0000     4.0000 </r>
       <r>   -11.7250     0.0000     4.0000 </r>
       <r>   -11.6550     0.0000     4.0000 </r>
       <r>   -11.5850     0.0000     4.0000 </r>
       <r>   -11.5150     0.0000     4.0000 </r>
       <r>   -11.4451     0.0000     4.0000 </r>
       <r>   -11.3751     0.0000     4.0000 </r>
       <r>   -11.3051     0.0127     4.0009 </r>
       <r>   -11.2351     0.0129     4.0018 </r>
       <r>   -11.1651     0.0260     4.0036 </r>
       <r>   -11.0951     0.0522     4.0073 </r>
       <r>   -11.0251     0.1049     4.0146 </r>
       <r>   -10.9551     0.2100     4.0293 </r>
       <r>   -10.8851     0.4182     4.0586 </r>
       <r>   -10.8151     0.8235     4.1162 </r>
       <r>   -10.7451     1.5868     4.2273 </r>
       <r>   -10.6752     2.9336     4.4326 </r>
       <r>   -10.6052     5.0306     4.7847 </r>
       <r>   -10.5352     7.6094     5.3173 </r>
       <r>   -10.4652     9.5780     5.9877 </r>
       <r>   -10.3952     9.6177     6.6608 </r>
       <r>   -10.3252     7.6980     7.1996 </r>
       <r>   -10.2552     5.1173     7.5578 </r>
       <r>   -10.1852     2.9946     7.7674 </r>
       <r>   -10.1152     1.6230     7.8810 </r>
       <r>   -10.0452     0.8432     7.9400 </r>
       <r>    -9.9752     0.4284     7.9700 </r>
       <r>    -9.9053     0.2152     7.9850 </r>
       <r>    -9.8353     0.1075     7.9925 </r>
       <r>    -9.7653     0.0535     7.9963 </r>
       <r>    -9.6953     0.0331     7.9986 </r>
       <r>    -9.6253     0.0066     8.0009 </r>
       <r>    -9.5553     0.0133     8.0018 </r>
       <r>    -9.4853     0.0267     8.0037 </r>
       <r>    -9.4153     0.0536     8.0075 </r>
       <r>    -9.3453     0.1072     8.0150 </r>
       <r>    -9.2753     0.2135     8.0299 </r>
       <r>    -9.2053     0.4203     8.0593 </r>
       <r>    -9.1353     0.8093     8.1160 </r>
       <r>    -9.0654     1.4941     8.2205 </r>
       <r>    -8.9954     2.5559     8.3994 </r>
       <r>    -8.9254     3.8627     8.6698 </r>
       <r>    -8.8554     4.8278     9.0077 </r>
       <r>    -8.7854     4.8221     9.3452 </r>
       <r>    -8.7154     3.8605     9.6154 </r>
       <r>    -8.6454     2.6210     9.7988 </r>
       <r>    -8.5754     1.6781     9.9163 </r>
       <r>    -8.5054     1.2160    10.0014 </r>
       <r>    -8.4354     1.2455    10.0886 </r>
       <r>    -8.3654     1.8161    10.2157 </r>
       <r>    -8.2955     3.0740    10.4308 </r>
       <r>    -8.2255     5.1358    10.7903 </r>
       <r>    -8.1555     7.6942    11.3288 </r>
       <r>    -8.0855     9.6246    12.0025 </r>
       <r>    -8.0155     9.6008    12.6753 </r>
       <r>    -7.9455     7.6440    13.2103 </r>
       <r>    -7.8755     5.0599    13.5645 </r>
       <r>    -7.8055     2.9526    13.7711 </r>
       <r>    -7.7355     1.5976    13.8830 </r>
       <r>    -7.6655     0.8293    13.9410 </r>
       <r>    -7.5955     0.4211    13.9705 </r>
       <r>    -7.5256     0.2115    13.9853 </r>
       <r>    -7.4556     0.1056    13.9927 </r>
       <r>    -7.3856     0.0526    13.9964 </r>
       <r>    -7.3156     0.0262    13.9982 </r>
       <r>    -7.2456     0.0000    14.0000 </r>
       <r>    -7.1756     0.0000    14.0000 </r>
       <r>    -7.1056     0.0000    14.0000 </r>
       <r>    -7.0356     0.0000    14.0000 </r>
       <r>    -6.9656     0.0000    14.0000 </r>
       <r>    -6.8956     0.0000    14.0000 </r>
       <r>    -6.8256     0.0000    14.0000 </r>
       <r>    -6.7557     0.0000    14.0000 </r>
       <r>    -6.6857     0.0000    14.0000 </r>
       <r>    -6.6157     0.0000    14.0000 </r>
       <r>    -6.5457     0.0000    14.0000 </r>
       <r>    -6.4757     0.0000    14.0000 </r>
       <r>    -6.4057     0.0000    14.0000 </r>
       <r>    -6.3357     0.0000    14.0000 </r>
       <r>    -6.2657     0.0000    14.0000 </r>
       <r>    -6.1957     0.0000    14.0000 </r>
       <r>    -6.1257     0.0000    14.0000 </r>
       <r>    -6.0557     0.0000    14.0000 </r>
       <r>    -5.9858     0.0000    14.0000 </r>
       <r>    -5.9158     0.0000    14.0000 </r>
       <r>    -5.8458     0.0000    14.0000 </r>
       <r>    -5.7758     0.0000    14.0000 </r>
       <r>    -5.7058     0.0000    14.0000 </r>
       <r>    -5.6358     0.0000    14.0000 </r>
       <r>    -5.5658     0.0000    14.0000 </r>
       <r>    -5.4958     0.0000    14.0000 </r>
       <r>    -5.4258     0.0000    14.0000 </r>
       <r>    -5.3558     0.0000    14.0000 </r>
       <r>    -5.2858     0.0000    14.0000 </r>
       <r>    -5.2159     0.0000    14.0000 </r>
       <r>    -5.1459     0.0000    14.0000 </r>
       <r>    -5.0759     0.0000    14.0000 </r>
       <r>    -5.0059     0.0000    14.0000 </r>
       <r>    -4.9359     0.0000    14.0000 </r>
       <r>    -4.8659     0.0000    14.0000 </r>
       <r>    -4.7959     0.0000    14.0000 </r>
       <r>    -4.7259     0.0000    14.0000 </r>
       <r>    -4.6559     0.0000    14.0000 </r>
       <r>    -4.5859     0.0000    14.0000 </r>
       <r>    -4.5159     0.0000    14.0000 </r>
       <r>    -4.4460     0.0000    14.0000 </r>
       <r>    -4.3760     0.0000    14.0000 </r>
       <r>    -4.3060     0.0000    14.0000 </r>
       <r>    -4.2360     0.0000    14.0000 </r>
       <r>    -4.1660     0.0000    14.0000 </r>
       <r>    -4.0960     0.0000    14.0000 </r>
       <r>    -4.0260     0.0000    14.0000 </r>
       <r>    -3.9560     0.0000    14.0000 </r>
       <r>    -3.8860     0.0000    14.0000 </r>
       <r>    -3.8160     0.0000    14.0000 </r>
       <r>    -3.7460     0.0000    14.0000 </r>
       <r>    -3.6760     0.0000    14.0000 </r>
       <r>    -3.6061     0.0000    14.0000 </r>
       <r>    -3.5361     0.0000    14.0000 </r>
       <r>    -3.4661     0.0000    14.0000 </r>
       <r>    -3.3961     0.0000    14.0000 </r>
       <r>    -3.3261     0.0000    14.0000 </r>
       <r>    -3.2561     0.0000    14.0000 </r>
       <r>    -3.1861     0.0000    14.0000 </r>
       <r>    -3.1161     0.0000    14.0000 </r>
       <r>    -3.0461     0.0000    14.0000 </r>
       <r>    -2.9761     0.0000    14.0000 </r>
       <r>    -2.9061     0.0000    14.0000 </r>
       <r>    -2.8362     0.0000    14.0000 </r>
       <r>    -2.7662     0.0000    14.0000 </r>
       <r>    -2.6962     0.0000    14.0000 </r>
       <r>    -2.6262     0.0000    14.0000 </r>
       <r>    -2.5562     0.0000    14.0000 </r>
       <r>    -2.4862     0.0000    14.0000 </r>
       <r>    -2.4162     0.0000    14.0000 </r>
       <r>    -2.3462     0.0000    14.0000 </r>
       <r>    -2.2762     0.0000    14.0000 </r>
       <r>    -2.2062     0.0000    14.0000 </r>
       <r>    -2.1362     0.0000    14.0000 </r>
       <r>    -2.0663     0.0000    14.0000 </r>
       <r>    -1.9963     0.0000    14.0000 </r>
       <r>    -1.9263     0.0000    14.0000 </r>
       <r>    -1.8563     0.0000    14.0000 </r>
       <r>    -1.7863     0.0000    14.0000 </r>
       <r>    -1.7163     0.0000    14.0000 </r>
       <r>    -1.6463     0.0000    14.0000 </r>
       <r>    -1.5763     0.0000    14.0000 </r>
       <r>    -1.5063     0.0000    14.0000 </r>
       <r>    -1.4363     0.0000    14.0000 </r>
       <r>    -1.3663     0.0000    14.0000 </r>
       <r>    -1.2964     0.0055    14.0004 </r>
       <r>    -1.2264     0.0056    14.0008 </r>
       <r>    -1.1564     0.0112    14.0016 </r>
       <r>    -1.0864     0.0226    14.0031 </r>
       <r>    -1.0164     0.0454    14.0063 </r>
       <r>    -0.9464     0.0909    14.0127 </r>
       <r>    -0.8764     0.1813    14.0254 </r>
       <r>    -0.8064     0.3582    14.0504 </r>
       <r>    -0.7364     0.7100    14.1001 </r>
       <r>    -0.6664     1.3139    14.1921 </r>
       <r>    -0.5964     2.3166    14.3542 </r>
       <r>    -0.5265     3.6274    14.6081 </r>
       <r>    -0.4565     4.8281    14.9460 </r>
       <r>    -0.3865     5.2406    15.3128 </r>
       <r>    -0.3165     4.7768    15.6472 </r>
       <r>    -0.2465     4.1410    15.9370 </r>
       <r>    -0.1765     4.2405    16.2338 </r>
       <r>    -0.1065     5.6704    16.6307 </r>
       <r>    -0.0365     8.7190    17.2409 </r>
       <r>     0.0335    13.1511    18.1614 </r>
       <r>     0.1035    17.9439    19.4173 </r>
       <r>     0.1735    21.8469    20.9464 </r>
       <r>     0.2434    24.1592    22.6373 </r>
       <r>     0.3134    24.4623    24.3495 </r>
       <r>     0.3834    22.5415    25.9282 </r>
       <r>     0.4534    18.9070    27.2515 </r>
       <r>     0.5234    14.5358    28.2689 </r>
       <r>     0.5934    10.2197    28.9842 </r>
       <r>     0.6634     6.5092    29.4398 </r>
       <r>     0.7334     3.7834    29.7046 </r>
       <r>     0.8034     2.0560    29.8485 </r>
       <r>     0.8734     1.0716    29.9235 </r>
       <r>     0.9434     0.5349    29.9624 </r>
       <r>     1.0134     0.2691    29.9813 </r>
       <r>     1.0833     0.1229    29.9915 </r>
       <r>     1.1533     0.0433    29.9970 </r>
       <r>     1.2233     0.0216    29.9985 </r>
       <r>     1.2933     0.0107    29.9993 </r>
       <r>     1.3633     0.0000    30.0000 </r>
       <r>     1.4333     0.0000    30.0000 </r>
       <r>     1.5033     0.0000    30.0000 </r>
      </set>
     </set>
    </array>
   </total>
  </dos>
 </calculation>
 <structure name="finalpos" >
  <crystal>
   <varray name="basis" >
    <v>      20.00000000       0.00000000       0.00000000 </v>
    <v>       0.00000000      20.00000000       0.00000000 </v>
    <v>       0.00000000       0.00000000      20.00000000 </v>
   </varray>
   <i name="volume">   8000.00000000 </i>
   <varray name="rec_basis" >
    <v>       0.05000000       0.00000000       0.00000000 </v>
    <v>       0.00000000       0.05000000       0.00000000 </v>
    <v>       0.00000000       0.00000000       0.05000000 </v>
   </varray>
  </crystal>
  <varray name="positions" >
   <v>       0.50000000       0.49999967       0.53820460 </v>
   <v>       0.50000000       0.50000033       0.46179540 </v>
   <v>       0.50000000       0.55120308       0.55832913 </v>
   <v>       0.45565178       0.47440067       0.55832838 </v>
   <v>       0.54434822       0.47440067       0.55832838 </v>
   <v>       0.50000000       0.44879692       0.44167087 </v>
   <v>       0.45565178       0.52559933       0.44167162 </v>
   <v>       0.54434822       0.52559933       0.44217162 </v>
  </varray>
 </structure>
</modeling>
