unknown system                          
           1
    20.000000    0.000000    0.000000
     0.000000   20.000000    0.000000
     0.000000    0.000000   20.000000
   C    H 
   2   6
Direct configuration=     1
   0.50000000  0.49999967  0.53820460
   0.50000000  0.50000033  0.46179540
   0.50000000  0.55120308  0.55832913
   0.45565178  0.47440067  0.55832838
   0.54434822  0.47440067  0.55832838
   0.50000000  0.44879692  0.44167087
   0.45565178  0.52559933  0.44167162
   0.54434822  0.52559933  0.44217162
