  39  39   0   0
  0.3445341E+02  0.8421642E-09  0.8421642E-09  0.2187624E-08  0.5000000E-15
  1.000000000000000E-004
  CAR 
 unknown system                          
      8.28465671    -15.72054939  301      1.42145643      1.00000000
    -15.721  0.0000E+00  0.0000E+00
    -15.641  0.0000E+00  0.0000E+00
    -15.561  0.0000E+00  0.0000E+00
    -15.480  0.4950E-02  0.3961E-03
    -15.400  0.6066E-02  0.8814E-03
    -15.320  0.1349E-01  0.1961E-02
    -15.240  0.2998E-01  0.4360E-02
    -15.160  0.6647E-01  0.9678E-02
    -15.080  0.1467E+00  0.2142E-01
    -15.000  0.3204E+00  0.4705E-01
    -14.920  0.6842E+00  0.1018E+00
    -14.840  0.1393E+01  0.2133E+00
    -14.760  0.2582E+01  0.4199E+00
    -14.680  0.4042E+01  0.7433E+00
    -14.600  0.4916E+01  0.1137E+01
    -14.520  0.4430E+01  0.1491E+01
    -14.440  0.3037E+01  0.1734E+01
    -14.360  0.1712E+01  0.1871E+01
    -14.280  0.8603E+00  0.1940E+01
    -14.200  0.4075E+00  0.1973E+01
    -14.120  0.1875E+00  0.1988E+01
    -14.040  0.8519E-01  0.1994E+01
    -13.960  0.3846E-01  0.1997E+01
    -13.880  0.1732E-01  0.1999E+01
    -13.800  0.0000E+00  0.2000E+01
    -13.720  0.0000E+00  0.2000E+01
    -13.640  0.0000E+00  0.2000E+01
    -13.560  0.0000E+00  0.2000E+01
    -13.480  0.0000E+00  0.2000E+01
    -13.400  0.0000E+00  0.2000E+01
    -13.320  0.0000E+00  0.2000E+01
    -13.240  0.0000E+00  0.2000E+01
    -13.160  0.0000E+00  0.2000E+01
    -13.080  0.0000E+00  0.2000E+01
    -13.000  0.0000E+00  0.2000E+01
    -12.920  0.0000E+00  0.2000E+01
    -12.840  0.0000E+00  0.2000E+01
    -12.760  0.0000E+00  0.2000E+01
    -12.680  0.0000E+00  0.2000E+01
    -12.600  0.0000E+00  0.2000E+01
    -12.520  0.0000E+00  0.2000E+01
    -12.440  0.0000E+00  0.2000E+01
    -12.360  0.0000E+00  0.2000E+01
    -12.280  0.0000E+00  0.2000E+01
    -12.200  0.0000E+00  0.2000E+01
    -12.120  0.0000E+00  0.2000E+01
    -12.040  0.0000E+00  0.2000E+01
    -11.960  0.0000E+00  0.2000E+01
    -11.880  0.0000E+00  0.2000E+01
    -11.800  0.0000E+00  0.2000E+01
    -11.720  0.0000E+00  0.2000E+01
    -11.640  0.0000E+00  0.2000E+01
    -11.560  0.0000E+00  0.2000E+01
    -11.480  0.0000E+00  0.2000E+01
    -11.400  0.0000E+00  0.2000E+01
    -11.320  0.0000E+00  0.2000E+01
    -11.240  0.0000E+00  0.2000E+01
    -11.160  0.0000E+00  0.2000E+01
    -11.080  0.0000E+00  0.2000E+01
    -11.000  0.0000E+00  0.2000E+01
    -10.920  0.0000E+00  0.2000E+01
    -10.839  0.0000E+00  0.2000E+01
    -10.759  0.0000E+00  0.2000E+01
    -10.679  0.0000E+00  0.2000E+01
    -10.599  0.0000E+00  0.2000E+01
    -10.519  0.0000E+00  0.2000E+01
    -10.439  0.0000E+00  0.2000E+01
    -10.359  0.0000E+00  0.2000E+01
    -10.279  0.0000E+00  0.2000E+01
    -10.199  0.0000E+00  0.2000E+01
    -10.119  0.0000E+00  0.2000E+01
    -10.039  0.0000E+00  0.2000E+01
     -9.959  0.0000E+00  0.2000E+01
     -9.879  0.0000E+00  0.2000E+01
     -9.799  0.0000E+00  0.2000E+01
     -9.719  0.0000E+00  0.2000E+01
     -9.639  0.0000E+00  0.2000E+01
     -9.559  0.5194E-02  0.2000E+01
     -9.479  0.6365E-02  0.2001E+01
     -9.399  0.1416E-01  0.2002E+01
     -9.319  0.3145E-01  0.2005E+01
     -9.239  0.6973E-01  0.2010E+01
     -9.159  0.1538E+00  0.2022E+01
     -9.079  0.3356E+00  0.2049E+01
     -8.999  0.7153E+00  0.2107E+01
     -8.919  0.1451E+01  0.2223E+01
     -8.839  0.2667E+01  0.2436E+01
     -8.759  0.4121E+01  0.2766E+01
     -8.679  0.4926E+01  0.3160E+01
     -8.599  0.4362E+01  0.3509E+01
     -8.519  0.2950E+01  0.3745E+01
     -8.439  0.1651E+01  0.3877E+01
     -8.359  0.8316E+00  0.3944E+01
     -8.279  0.4051E+00  0.3976E+01
     -8.199  0.2140E+00  0.3993E+01
     -8.119  0.1576E+00  0.4006E+01
     -8.039  0.1984E+00  0.4022E+01
     -7.959  0.3427E+00  0.4049E+01
     -7.879  0.6014E+00  0.4098E+01
     -7.799  0.9745E+00  0.4176E+01
     -7.719  0.1361E+01  0.4285E+01
     -7.639  0.1667E+01  0.4419E+01
     -7.559  0.1850E+01  0.4567E+01
     -7.479  0.1949E+01  0.4723E+01
     -7.399  0.2042E+01  0.4886E+01
     -7.319  0.2137E+01  0.5057E+01
     -7.239  0.2168E+01  0.5230E+01
     -7.159  0.2148E+01  0.5402E+01
     -7.079  0.2164E+01  0.5575E+01
     -6.999  0.2261E+01  0.5757E+01
     -6.919  0.2437E+01  0.5952E+01
     -6.839  0.2636E+01  0.6163E+01
     -6.759  0.2884E+01  0.6393E+01
     -6.679  0.3309E+01  0.6658E+01
     -6.599  0.4039E+01  0.6981E+01
     -6.519  0.5079E+01  0.7388E+01
     -6.439  0.6260E+01  0.7889E+01
     -6.359  0.7322E+01  0.8475E+01
     -6.279  0.8058E+01  0.9120E+01
     -6.198  0.8232E+01  0.9779E+01
     -6.118  0.7836E+01  0.1041E+02
     -6.038  0.7332E+01  0.1099E+02
     -5.958  0.7132E+01  0.1156E+02
     -5.878  0.7358E+01  0.1215E+02
     -5.798  0.7958E+01  0.1279E+02
     -5.718  0.8752E+01  0.1349E+02
     -5.638  0.9649E+01  0.1426E+02
     -5.558  0.1070E+02  0.1512E+02
     -5.478  0.1182E+02  0.1606E+02
     -5.398  0.1289E+02  0.1710E+02
     -5.318  0.1413E+02  0.1823E+02
     -5.238  0.1581E+02  0.1949E+02
     -5.158  0.1794E+02  0.2093E+02
     -5.078  0.2027E+02  0.2255E+02
     -4.998  0.2267E+02  0.2437E+02
     -4.918  0.2525E+02  0.2639E+02
     -4.838  0.2789E+02  0.2862E+02
     -4.758  0.3027E+02  0.3104E+02
     -4.678  0.3222E+02  0.3362E+02
     -4.598  0.3403E+02  0.3634E+02
     -4.518  0.3621E+02  0.3924E+02
     -4.438  0.3895E+02  0.4236E+02
     -4.358  0.4210E+02  0.4573E+02
     -4.278  0.4534E+02  0.4936E+02
     -4.198  0.4805E+02  0.5320E+02
     -4.118  0.4968E+02  0.5718E+02
     -4.038  0.5008E+02  0.6119E+02
     -3.958  0.4946E+02  0.6515E+02
     -3.878  0.4820E+02  0.6900E+02
     -3.798  0.4646E+02  0.7272E+02
     -3.718  0.4429E+02  0.7627E+02
     -3.638  0.4204E+02  0.7963E+02
     -3.558  0.4034E+02  0.8286E+02
     -3.478  0.3973E+02  0.8604E+02
     -3.398  0.4049E+02  0.8929E+02
     -3.318  0.4233E+02  0.9268E+02
     -3.238  0.4437E+02  0.9623E+02
     -3.158  0.4572E+02  0.9989E+02
     -3.078  0.4618E+02  0.1036E+03
     -2.998  0.4639E+02  0.1073E+03
     -2.918  0.4698E+02  0.1111E+03
     -2.838  0.4772E+02  0.1149E+03
     -2.758  0.4785E+02  0.1187E+03
     -2.678  0.4745E+02  0.1225E+03
     -2.598  0.4753E+02  0.1263E+03
     -2.518  0.4888E+02  0.1302E+03
     -2.438  0.5125E+02  0.1343E+03
     -2.358  0.5385E+02  0.1386E+03
     -2.278  0.5662E+02  0.1432E+03
     -2.198  0.5977E+02  0.1480E+03
     -2.118  0.6285E+02  0.1530E+03
     -2.038  0.6556E+02  0.1582E+03
     -1.958  0.6854E+02  0.1637E+03
     -1.878  0.7209E+02  0.1695E+03
     -1.798  0.7536E+02  0.1755E+03
     -1.718  0.7747E+02  0.1817E+03
     -1.637  0.7845E+02  0.1880E+03
     -1.557  0.7869E+02  0.1943E+03
     -1.477  0.7814E+02  0.2006E+03
     -1.397  0.7597E+02  0.2066E+03
     -1.317  0.7135E+02  0.2124E+03
     -1.237  0.6491E+02  0.2176E+03
     -1.157  0.5820E+02  0.2222E+03
     -1.077  0.5241E+02  0.2264E+03
     -0.997  0.4829E+02  0.2303E+03
     -0.917  0.4680E+02  0.2340E+03
     -0.837  0.4855E+02  0.2379E+03
     -0.757  0.5279E+02  0.2421E+03
     -0.677  0.5732E+02  0.2467E+03
     -0.597  0.5962E+02  0.2515E+03
     -0.517  0.5853E+02  0.2562E+03
     -0.437  0.5517E+02  0.2606E+03
     -0.357  0.5179E+02  0.2648E+03
     -0.277  0.4988E+02  0.2687E+03
     -0.197  0.4975E+02  0.2727E+03
     -0.117  0.5108E+02  0.2768E+03
     -0.037  0.5351E+02  0.2811E+03
      0.043  0.5646E+02  0.2856E+03
      0.123  0.5930E+02  0.2904E+03
      0.203  0.6144E+02  0.2953E+03
      0.283  0.6231E+02  0.3003E+03
      0.363  0.6138E+02  0.3052E+03
      0.443  0.5880E+02  0.3099E+03
      0.523  0.5568E+02  0.3144E+03
      0.603  0.5339E+02  0.3186E+03
      0.683  0.5257E+02  0.3228E+03
      0.763  0.5286E+02  0.3271E+03
      0.843  0.5376E+02  0.3314E+03
      0.923  0.5553E+02  0.3358E+03
      1.003  0.5881E+02  0.3405E+03
      1.083  0.6328E+02  0.3456E+03
      1.163  0.6758E+02  0.3510E+03
      1.243  0.7042E+02  0.3566E+03
      1.323  0.7094E+02  0.3623E+03
      1.403  0.6849E+02  0.3678E+03
      1.483  0.6331E+02  0.3729E+03
      1.563  0.5675E+02  0.3774E+03
      1.643  0.4971E+02  0.3814E+03
      1.723  0.4200E+02  0.3848E+03
      1.803  0.3388E+02  0.3875E+03
      1.883  0.2677E+02  0.3896E+03
      1.963  0.2170E+02  0.3914E+03
      2.043  0.1835E+02  0.3928E+03
      2.123  0.1591E+02  0.3941E+03
      2.203  0.1403E+02  0.3952E+03
      2.283  0.1283E+02  0.3963E+03
      2.363  0.1238E+02  0.3972E+03
      2.443  0.1237E+02  0.3982E+03
      2.523  0.1217E+02  0.3992E+03
      2.603  0.1163E+02  0.4001E+03
      2.683  0.1123E+02  0.4010E+03
      2.763  0.1137E+02  0.4020E+03
      2.843  0.1187E+02  0.4029E+03
      2.923  0.1236E+02  0.4039E+03
      3.004  0.1263E+02  0.4049E+03
      3.084  0.1267E+02  0.4059E+03
      3.164  0.1249E+02  0.4069E+03
      3.244  0.1207E+02  0.4079E+03
      3.324  0.1141E+02  0.4088E+03
      3.404  0.1079E+02  0.4097E+03
      3.484  0.1052E+02  0.4105E+03
      3.564  0.1071E+02  0.4114E+03
      3.644  0.1122E+02  0.4123E+03
      3.724  0.1176E+02  0.4132E+03
      3.804  0.1206E+02  0.4142E+03
      3.884  0.1204E+02  0.4151E+03
      3.964  0.1188E+02  0.4161E+03
      4.044  0.1174E+02  0.4170E+03
      4.124  0.1158E+02  0.4180E+03
      4.204  0.1138E+02  0.4189E+03
      4.284  0.1125E+02  0.4198E+03
      4.364  0.1114E+02  0.4207E+03
      4.444  0.1115E+02  0.4215E+03
      4.524  0.1149E+02  0.4225E+03
      4.604  0.1202E+02  0.4234E+03
      4.684  0.1229E+02  0.4244E+03
      4.764  0.1227E+02  0.4254E+03
      4.844  0.1225E+02  0.4264E+03
      4.924  0.1231E+02  0.4274E+03
      5.004  0.1228E+02  0.4283E+03
      5.084  0.1205E+02  0.4293E+03
      5.164  0.1173E+02  0.4303E+03
      5.244  0.1146E+02  0.4312E+03
      5.324  0.1131E+02  0.4321E+03
      5.404  0.1143E+02  0.4330E+03
      5.484  0.1171E+02  0.4339E+03
      5.564  0.1179E+02  0.4349E+03
      5.644  0.1156E+02  0.4358E+03
      5.724  0.1133E+02  0.4367E+03
      5.804  0.1131E+02  0.4376E+03
      5.884  0.1139E+02  0.4385E+03
      5.964  0.1136E+02  0.4394E+03
      6.044  0.1107E+02  0.4403E+03
      6.124  0.1076E+02  0.4412E+03
      6.204  0.1067E+02  0.4420E+03
      6.284  0.1063E+02  0.4429E+03
      6.364  0.1042E+02  0.4437E+03
      6.444  0.1007E+02  0.4445E+03
      6.524  0.9648E+01  0.4453E+03
      6.604  0.9214E+01  0.4460E+03
      6.684  0.8794E+01  0.4467E+03
      6.764  0.8337E+01  0.4474E+03
      6.844  0.7722E+01  0.4480E+03
      6.924  0.6847E+01  0.4486E+03
      7.004  0.5724E+01  0.4490E+03
      7.084  0.4472E+01  0.4494E+03
      7.164  0.3212E+01  0.4496E+03
      7.244  0.2072E+01  0.4498E+03
      7.324  0.1190E+01  0.4499E+03
      7.404  0.6180E+00  0.4500E+03
      7.484  0.2975E+00  0.4500E+03
      7.565  0.1369E+00  0.4500E+03
      7.645  0.6054E-01  0.4500E+03
      7.725  0.2498E-01  0.4500E+03
      7.805  0.9739E-02  0.4500E+03
      7.885  0.3246E-02  0.4500E+03
      7.965  0.7016E-03  0.4500E+03
      8.045  0.0000E+00  0.4500E+03
      8.125  0.0000E+00  0.4500E+03
      8.205  0.0000E+00  0.4500E+03
      8.285  0.0000E+00  0.4500E+03
