 vasp.5.4.1 24Jun15 (build Oct 10 2016 12:42:00) complex                        
  
 executed on           IFC91_ompi date 2018.07.02  15:43:15
 running on   20 total cores
 distrk:  each k-point on   20 cores,    1 groups
 distr:  one band on NCORES_PER_BAND=   4 cores,    5 groups


--------------------------------------------------------------------------------------------------------


 INCAR:
 POTCAR:    PAW_PBE Pt 04Feb2005                  
 POTCAR:    PAW_PBE C 08Apr2002                   
 POTCAR:    PAW_PBE H 15Jun2001                   
 POTCAR:    PAW_PBE Pt 04Feb2005                  
   VRHFIN =Pt: s1d9                                                             
   LEXCH  = PE                                                                  
   EATOM  =   729.1176 eV,   53.5886 Ry                                         
                                                                                
   TITEL  = PAW_PBE Pt 04Feb2005                                                
   LULTRA =        F    use ultrasoft PP ?                                      
   IUNSCR =        1    unscreen: 0-lin 1-nonlin 2-no                           
   RPACOR =    2.330    partial core radius                                     
   POMASS =  195.080; ZVAL   =   10.000    mass and valenz                      
   RCORE  =    2.600    outmost cutoff radius                                   
   RWIGS  =    2.750; RWIGS  =    1.455    wigner-seitz radius (au A)           
   ENMAX  =  230.283; ENMIN  =  172.712 eV                                      
   ICORE  =        3    local potential                                         
   LCOR   =        T    correct aug charges                                     
   LPAW   =        T    paw PP                                                  
   EAUG   =  358.966                                                            
   DEXC   =    0.000                                                            
   RMAX   =    2.658    core radius for proj-oper                               
   RAUG   =    1.300    factor for augmentation sphere                          
   RDEP   =    2.761    radius for radial grids                                 
   RDEPT  =    2.203    core radius for aug-charge                              
                                                                                
   Atomic configuration                                                         
   16 entries                                                                   
     n  l   j            E        occ.                                          
     1  0  0.50    -78401.1885   2.0000                                         
     2  0  0.50    -13770.7750   2.0000                                         
     2  1  1.50    -11931.0468   6.0000                                         
     3  0  0.50     -3234.7234   2.0000                                         
     3  1  1.50     -2699.2216   6.0000                                         
     3  2  2.50     -2119.5714  10.0000                                         
     4  0  0.50      -695.1528   2.0000                                         
     4  1  1.50      -519.6034   6.0000                                         
     4  2  2.50      -306.6786  10.0000                                         
     4  3  3.50       -70.1041  14.0000                                         
     5  0  0.50      -101.7747   2.0000                                         
     5  1  1.50       -55.9873   6.0000                                         
     5  2  2.50        -6.1423   9.0000                                         
     6  0  0.50        -5.6573   1.0000                                         
     6  1  1.50        -6.8029   0.0000                                         
     5  3  2.50        -1.3606   0.0000                                         
   Description                                                                  
     l       E           TYP  RCUT    TYP  RCUT                                 
     2     -6.1423404     23  2.500                                             
     2     -7.5029230     23  2.500                                             
     0     -5.6573207     23  2.500                                             
     0      0.7416693     23  2.500                                             
     1     -2.7211652     23  2.600                                             
     1     20.4087390     23  2.600                                             
     3     -1.3605826     23  2.500                                             
  local pseudopotential read in
  partial core-charges read in
  partial kinetic energy density read in
  atomic valenz-charges read in
  non local Contribution for L=           2  read in
    real space projection operators read in
  non local Contribution for L=           2  read in
    real space projection operators read in
  non local Contribution for L=           0  read in
    real space projection operators read in
  non local Contribution for L=           0  read in
    real space projection operators read in
  non local Contribution for L=           1  read in
    real space projection operators read in
  non local Contribution for L=           1  read in
    real space projection operators read in
    PAW grid and wavefunctions read in
 
   number of l-projection  operators is LMAX  =           6
   number of lm-projection operators is LMMAX =          18
 
 POTCAR:    PAW_PBE C 08Apr2002                   
   VRHFIN =C: s2p2                                                              
   LEXCH  = PE                                                                  
   EATOM  =   147.1560 eV,   10.8157 Ry                                         
                                                                                
   TITEL  = PAW_PBE C 08Apr2002                                                 
   LULTRA =        F    use ultrasoft PP ?                                      
   IUNSCR =        1    unscreen: 0-lin 1-nonlin 2-no                           
   RPACOR =    1.200    partial core radius                                     
   POMASS =   12.011; ZVAL   =    4.000    mass and valenz                      
   RCORE  =    1.500    outmost cutoff radius                                   
   RWIGS  =    1.630; RWIGS  =    0.863    wigner-seitz radius (au A)           
   ENMAX  =  400.000; ENMIN  =  300.000 eV                                      
   ICORE  =        2    local potential                                         
   LCOR   =        T    correct aug charges                                     
   LPAW   =        T    paw PP                                                  
   EAUG   =  644.873                                                            
   DEXC   =    0.000                                                            
   RMAX   =    1.529    core radius for proj-oper                               
   RAUG   =    1.300    factor for augmentation sphere                          
   RDEP   =    1.501    radius for radial grids                                 
   RDEPT  =    1.300    core radius for aug-charge                              
                                                                                
   Atomic configuration                                                         
    4 entries                                                                   
     n  l   j            E        occ.                                          
     1  0  0.50      -273.3789   2.0000                                         
     2  0  0.50       -13.7508   2.0000                                         
     2  1  0.50        -5.2854   2.0000                                         
     3  2  1.50        -5.4423   0.0000                                         
   Description                                                                  
     l       E           TYP  RCUT    TYP  RCUT                                 
     0    -13.7508458     23  1.200                                             
     0     -8.2022199     23  1.200                                             
     1     -5.2854383     23  1.500                                             
     1     34.0145650     23  1.500                                             
     2     -5.4423304      7  1.500                                             
  local pseudopotential read in
  partial core-charges read in
  partial kinetic energy density read in
  atomic valenz-charges read in
  non local Contribution for L=           0  read in
    real space projection operators read in
  non local Contribution for L=           0  read in
    real space projection operators read in
  non local Contribution for L=           1  read in
    real space projection operators read in
  non local Contribution for L=           1  read in
    real space projection operators read in
    PAW grid and wavefunctions read in
 
   number of l-projection  operators is LMAX  =           4
   number of lm-projection operators is LMMAX =           8
 
 POTCAR:    PAW_PBE H 15Jun2001                   
   VRHFIN =H: ultrasoft test                                                    
   LEXCH  = PE                                                                  
   EATOM  =    12.4884 eV,    0.9179 Ry                                         
                                                                                
   TITEL  = PAW_PBE H 15Jun2001                                                 
   LULTRA =        F    use ultrasoft PP ?                                      
   IUNSCR =        0    unscreen: 0-lin 1-nonlin 2-no                           
   RPACOR =    0.000    partial core radius                                     
   POMASS =    1.000; ZVAL   =    1.000    mass and valenz                      
   RCORE  =    1.100    outmost cutoff radius                                   
   RWIGS  =    0.700; RWIGS  =    0.370    wigner-seitz radius (au A)           
   ENMAX  =  250.000; ENMIN  =  200.000 eV                                      
   RCLOC  =    0.701    cutoff for local pot                                    
   LCOR   =        T    correct aug charges                                     
   LPAW   =        T    paw PP                                                  
   EAUG   =  400.000                                                            
   RMAX   =    1.123    core radius for proj-oper                               
   RAUG   =    1.200    factor for augmentation sphere                          
   RDEP   =    1.112    radius for radial grids                                 
   RDEPT  =    0.926    core radius for aug-charge                              
                                                                                
   Atomic configuration                                                         
    2 entries                                                                   
     n  l   j            E        occ.                                          
     1  0  0.50        -6.4927   1.0000                                         
     2  1  0.50        -3.4015   0.0000                                         
   Description                                                                  
     l       E           TYP  RCUT    TYP  RCUT                                 
     0     -6.4927494     23  1.100                                             
     0      6.8029130     23  1.100                                             
     1     -4.0817478     23  1.100                                             
  local pseudopotential read in
  atomic valenz-charges read in
  non local Contribution for L=           0  read in
    real space projection operators read in
  non local Contribution for L=           0  read in
    real space projection operators read in
  non local Contribution for L=           1  read in
    real space projection operators read in
    PAW grid and wavefunctions read in
 
   number of l-projection  operators is LMAX  =           3
   number of lm-projection operators is LMMAX =           5
 
 Optimization of the real space projectors (new method)

 maximal supplied QI-value         = 14.36
 optimisation between [QCUT,QGAM] = [ 10.20, 20.39] = [ 29.12,116.47] Ry 
 Optimized for a Real-space Cutoff    1.51 Angstroem

   l    n(q)    QCUT    max X(q) W(low)/X(q) W(high)/X(q)  e(spline) 
   2      8    10.197    66.195    0.45E-03    0.45E-03    0.14E-06
   2      8    10.197    64.643    0.46E-03    0.46E-03    0.14E-06
   0      9    10.197    95.520    0.15E-03    0.11E-03    0.54E-07
   0      9    10.197    63.403    0.15E-03    0.11E-03    0.52E-07
   1      9    10.197    19.961    0.13E-03    0.17E-03    0.77E-07
   1      9    10.197    13.289    0.10E-03    0.15E-03    0.67E-07
 Optimization of the real space projectors (new method)

 maximal supplied QI-value         = 25.13
 optimisation between [QCUT,QGAM] = [ 10.05, 20.36] = [ 28.30,116.06] Ry 
 Optimized for a Real-space Cutoff    1.30 Angstroem

   l    n(q)    QCUT    max X(q) W(low)/X(q) W(high)/X(q)  e(spline) 
   0      8    10.053   115.676    0.49E-03    0.72E-03    0.18E-06
   0      8    10.053    87.132    0.49E-03    0.71E-03    0.18E-06
   1      7    10.053     4.429    0.32E-03    0.31E-03    0.18E-06
   1      7    10.053     2.733    0.23E-03    0.19E-03    0.20E-06
 Optimization of the real space projectors (new method)

 maximal supplied QI-value         = 34.20
 optimisation between [QCUT,QGAM] = [  9.92, 20.18] = [ 27.55,114.04] Ry 
 Optimized for a Real-space Cutoff    1.26 Angstroem

   l    n(q)    QCUT    max X(q) W(low)/X(q) W(high)/X(q)  e(spline) 
   0      8     9.919    19.460    0.50E-03    0.23E-03    0.29E-06
   0      8     9.919    12.209    0.48E-03    0.23E-03    0.28E-06
   1      7     9.919     4.655    0.17E-03    0.75E-03    0.30E-06
  PAW_PBE Pt 04Feb2005                  :
 energy of atom  1       EATOM= -729.1176
 kinetic energy error for atom=    0.0056 (will be added to EATOM!!)
  PAW_PBE C 08Apr2002                   :
 energy of atom  2       EATOM= -147.1560
 kinetic energy error for atom=    0.0288 (will be added to EATOM!!)
  PAW_PBE H 15Jun2001                   :
 energy of atom  3       EATOM=  -12.4884
 kinetic energy error for atom=    0.0098 (will be added to EATOM!!)
 
 
 POSCAR: Pt  C  H                                
  positions in cartesian coordinates
  No initial velocities read in
 exchange correlation table for  LEXCH =        8
   RHO(1)=    0.500       N(1)  =     2000
   RHO(2)=  100.500       N(2)  =     4000

 VTST: version 3.1, (03/28/14)

 CHAIN: initializing optimizer
 
 OPT: Using VASP Dynamics algorithm
 CHAIN: Read ICHAIN            0
 
 POSCAR: Pt  C  H                                
  positions in cartesian coordinates
  No initial velocities read in
 


--------------------------------------------------------------------------------------------------------


 ion  position               nearest neighbor table
   1  0.000  0.000  0.343-  12 2.81  16 2.81  10 2.81   6 2.81   7 2.81   8 2.81   2 2.81   3 2.81
                             4 2.81
   2  0.333  0.000  0.343-  10 2.81  11 2.81  17 2.81   3 2.81   9 2.81   1 2.81   4 2.81   5 2.81
                             8 2.81
   3  0.667  0.000  0.343-  11 2.81  18 2.81  12 2.81   2 2.81   5 2.81   9 2.81   1 2.81   6 2.81
                             7 2.81
   4  0.000  0.333  0.343-  10 2.81  13 2.81  15 2.81   7 2.81   9 2.81   2 2.81   5 2.81   6 2.81
                             1 2.81
   5  0.333  0.333  0.343-  14 2.81  13 2.81  11 2.81   8 2.81   6 2.81   3 2.81   7 2.81   2 2.81
                             4 2.81
   6  0.667  0.333  0.343-  12 2.81  14 2.81  15 2.81   5 2.81   8 2.81   9 2.81   1 2.81   3 2.81
                             4 2.81
   7  0.000  0.667  0.343-  13 2.81  18 2.81  16 2.81   4 2.81   5 2.81   9 2.81   1 2.81   3 2.81
                             8 2.81
   8  0.333  0.667  0.343-  14 2.81  16 2.81  17 2.81   5 2.81   6 2.81   9 2.81   2 2.81   7 2.81
                             1 2.81
   9  0.667  0.667  0.343-  15 2.81  17 2.81  18 2.81   8 2.81   6 2.81   4 2.81   2 2.81   3 2.81
                             7 2.81
  10  0.111  0.111  0.448-  26 2.76  20 2.80   2 2.81   4 2.81   1 2.81  11 2.81  13 2.81  15 2.81
                            17 2.81  16 2.81  12 2.81  19 2.81
  11  0.444  0.111  0.448-  27 2.79  20 2.79   5 2.81   2 2.81   3 2.81  14 2.81  10 2.81  13 2.81
                            18 2.81  12 2.81  17 2.81  21 2.81
  12  0.778  0.111  0.448-  19 2.80  25 2.80  21 2.81   6 2.81   1 2.81   3 2.81  15 2.81  14 2.81
                            18 2.81  10 2.81  11 2.81  16 2.81
  13  0.111  0.444  0.448-  22 2.77  20 2.79  23 2.81   4 2.81   5 2.81   7 2.81  10 2.81  11 2.81
                            14 2.81  15 2.81  16 2.81  18 2.81
  14  0.444  0.444  0.448-  24 2.80  23 2.80  21 2.81   5 2.81   8 2.81   6 2.81  13 2.81  11 2.81
                            16 2.81  12 2.81  17 2.81  15 2.81
  15  0.778  0.444  0.448-  22 2.78  24 2.79  19 2.79   4 2.81   6 2.81   9 2.81  12 2.81  10 2.81
                            18 2.81  13 2.81  14 2.81  17 2.81
  16  0.111  0.778  0.448-  26 2.77   8 2.81   1 2.81   7 2.81  17 2.81  14 2.81  10 2.81  12 2.81
                            18 2.81  13 2.81  25 2.82  23 2.82
  17  0.444  0.778  0.448-  26 2.76  27 2.80   9 2.81   2 2.81   8 2.81  16 2.81  10 2.81  11 2.81
                            18 2.81  14 2.81  15 2.81  24 2.81
  18  0.778  0.778  0.448-  22 2.77  27 2.79  25 2.81   7 2.81   3 2.81   9 2.81  15 2.81  16 2.81
                            17 2.81  11 2.81  12 2.81  13 2.81
  19  0.887  0.224  0.552-  24 2.78  15 2.79  21 2.79  12 2.80  31 2.80  22 2.81  28 2.81  10 2.81
                            25 2.81  26 2.82  20 2.83  33 2.86
  20  0.223  0.223  0.552-  23 2.78  13 2.79  11 2.79  31 2.80  10 2.80  21 2.80  22 2.81  27 2.81
                            26 2.81  29 2.82  19 2.83  32 2.89
  21  0.556  0.223  0.552-  23 2.79  25 2.79  19 2.79  24 2.80  27 2.80  20 2.80  12 2.81  14 2.81
                            11 2.81  30 2.94  32 2.94  33 2.97
  22  0.889  0.556  0.551-  13 2.77  18 2.77  15 2.78  25 2.80  23 2.80  20 2.81  19 2.81  24 2.81
                            27 2.81  36 2.81  31 2.81  34 2.83
  23  0.224  0.552  0.553-  20 2.78  34 2.78  21 2.79  22 2.80  14 2.80  13 2.81  35 2.81  24 2.81
                            16 2.82  26 2.83  32 2.84  25 2.85
  24  0.557  0.554  0.552-  19 2.78  15 2.79  21 2.80  14 2.80  36 2.80  22 2.81  35 2.81  17 2.81
                            23 2.81  26 2.82  27 2.82  33 2.86
  25  0.886  0.890  0.553-  27 2.78  34 2.79  21 2.79  22 2.80  12 2.80  18 2.81  28 2.81  19 2.81
                            16 2.82  26 2.83  30 2.83  23 2.85
  26  0.223  0.889  0.550-  17 2.76  10 2.76  16 2.77  28 2.80  35 2.80  29 2.81  20 2.81  27 2.81
                            24 2.82  19 2.82  23 2.83  25 2.83
  27  0.557  0.890  0.552-  25 2.78  18 2.79  11 2.79  17 2.80  36 2.80  21 2.80  22 2.81  20 2.81
                            26 2.81  29 2.82  24 2.82  30 2.88
  28  0.007  0.998  0.656-  29 2.73  35 2.74  26 2.80  19 2.81  34 2.81  31 2.81  25 2.81  30 2.83
                            33 2.85
  29  0.331  0.997  0.656-  35 2.73  28 2.73  37 2.76  36 2.81  31 2.81  26 2.81  27 2.82  20 2.82
                            32 2.87  30 2.87
  30  0.676  0.988  0.662-  37 2.15  38 2.17  34 2.72  36 2.73  25 2.83  28 2.83  29 2.87  27 2.88
                            21 2.94  32 2.98  33 2.99
  31  0.001  0.335  0.656-  33 2.71  32 2.73  36 2.80  20 2.80  34 2.80  19 2.80  28 2.81  29 2.81
                            22 2.81
  32  0.322  0.342  0.662-  37 2.16  38 2.16  34 2.72  31 2.73  35 2.84  23 2.84  29 2.87  20 2.89
                            21 2.94  30 2.98  33 2.99
  33  0.676  0.342  0.662-  38 1.90  31 2.71  36 2.71  28 2.85  35 2.85  19 2.86  24 2.86  21 2.97
                            30 2.99  32 2.99
  34  0.001  0.668  0.656-  30 2.72  32 2.72  23 2.78  25 2.79  31 2.80  36 2.80  35 2.81  28 2.81
                            22 2.83
  35  0.332  0.673  0.656-  29 2.73  28 2.74  26 2.80  24 2.81  34 2.81  36 2.81  23 2.81  32 2.84
                            33 2.85
  36  0.669  0.667  0.656-  33 2.71  30 2.73  31 2.80  27 2.80  34 2.80  24 2.80  35 2.81  29 2.81
                            22 2.81
  37  0.484  0.149  0.732-  39 1.09  38 1.36  30 2.15  32 2.16  29 2.76
  38  0.571  0.239  0.714-  37 1.36  33 1.90  32 2.16  30 2.17
  39  0.445  0.109  0.774-  37 1.09
 
  LATTYP: Found a hexagonal cell.
 ALAT       =     8.4216417639
 C/A-ratio  =     2.5976219743
  
  Lattice vectors:
  
 A1 = (   4.2108208820,  -7.2933557091,   0.0000000000)
 A2 = (  -8.4216417639,   0.0000000000,   0.0000000000)
 A3 = (   0.0000000000,   0.0000000000, -21.8762417060)


Analysis of symmetry for initial positions (statically):
=====================================================================
 Subroutine PRICEL returns:
 Original cell was already a primitive cell.
 

 Routine SETGRP: Setting up the symmetry group for a 
 hexagonal supercell.


 Subroutine GETGRP returns: Found  1 space group operations
 (whereof  1 operations were pure point group operations)
 out of a pool of 24 trial point group operations.


The static configuration has the point symmetry C_1 .


Analysis of symmetry for dynamics (positions and initial velocities):
=====================================================================
 Subroutine PRICEL returns:
 Original cell was already a primitive cell.
 

 Routine SETGRP: Setting up the symmetry group for a 
 hexagonal supercell.


 Subroutine GETGRP returns: Found  1 space group operations
 (whereof  1 operations were pure point group operations)
 out of a pool of 24 trial point group operations.


The dynamic configuration has the point symmetry C_1 .


Analysis of constrained symmetry for selective dynamics:
=====================================================================
 Subroutine PRICEL returns:
 Original cell was already a primitive cell.
 

 Routine SETGRP: Setting up the symmetry group for a 
 hexagonal supercell.


 Subroutine GETGRP returns: Found  1 space group operations
 (whereof  1 operations were pure point group operations)
 out of a pool of 24 trial point group operations.


The constrained configuration has the point symmetry C_1 .
 
 
 KPOINTS: KPOINTS created by Atomic Simulation Env

Automatic generation of k-mesh.
Space group operators:
 irot       det(A)        alpha          n_x          n_y          n_z        tau_x        tau_y        tau_z
    1     1.000000     0.000000     1.000000     0.000000     0.000000     0.000000     0.000000     0.000000
 
 Subroutine IBZKPT returns following result:
 ===========================================
 
 Found     54 irreducible k-points:
 
 Following reciprocal coordinates:
            Coordinates               Weight
  0.083333  0.083333  0.000000     16.000000
  0.000000  0.083333  0.000000     16.000000
 -0.083333  0.000000  0.000000     16.000000
  0.250000  0.083333  0.000000     16.000000
  0.166667  0.250000  0.000000     16.000000
 -0.083333  0.166667  0.000000     16.000000
  0.166667 -0.083333  0.000000     16.000000
 -0.083333 -0.250000  0.000000     16.000000
 -0.250000 -0.166667  0.000000     16.000000
  0.416667  0.083333  0.000000     16.000000
  0.333333  0.416667  0.000000     16.000000
 -0.083333  0.333333  0.000000     16.000000
  0.333333 -0.083333  0.000000     16.000000
 -0.083333 -0.416667  0.000000     16.000000
 -0.416667 -0.333333  0.000000     16.000000
 -0.416667  0.083333  0.000000     16.000000
  0.500000 -0.416667  0.000000     16.000000
 -0.083333  0.500000  0.000000     16.000000
  0.500000 -0.083333  0.000000     16.000000
 -0.083333  0.416667  0.000000     16.000000
  0.416667  0.500000  0.000000     16.000000
 -0.250000  0.083333  0.000000     16.000000
 -0.333333 -0.250000  0.000000     16.000000
 -0.083333 -0.333333  0.000000     16.000000
 -0.333333 -0.083333  0.000000     16.000000
 -0.083333  0.250000  0.000000     16.000000
  0.250000  0.333333  0.000000     16.000000
 -0.083333  0.083333  0.000000     16.000000
 -0.166667 -0.083333  0.000000     16.000000
 -0.083333 -0.166667  0.000000     16.000000
  0.250000  0.250000  0.000000     16.000000
  0.000000  0.250000  0.000000     16.000000
 -0.250000  0.000000  0.000000     16.000000
  0.416667  0.250000  0.000000     16.000000
  0.166667  0.416667  0.000000     16.000000
 -0.250000  0.166667  0.000000     16.000000
  0.166667 -0.250000  0.000000     16.000000
 -0.250000 -0.416667  0.000000     16.000000
 -0.416667 -0.166667  0.000000     16.000000
 -0.416667  0.250000  0.000000     16.000000
  0.333333 -0.416667  0.000000     16.000000
 -0.250000  0.333333  0.000000     16.000000
  0.333333 -0.250000  0.000000     16.000000
 -0.250000  0.416667  0.000000     16.000000
  0.416667 -0.333333  0.000000     16.000000
 -0.250000  0.250000  0.000000     16.000000
  0.500000 -0.250000  0.000000     16.000000
 -0.250000  0.500000  0.000000     16.000000
  0.416667  0.416667  0.000000     16.000000
  0.000000  0.416667  0.000000     16.000000
 -0.416667 -0.000000  0.000000     16.000000
 -0.416667  0.416667  0.000000     16.000000
  0.166667 -0.416667  0.000000     16.000000
 -0.416667  0.166667  0.000000     16.000000
 
 Following cartesian coordinates:
            Coordinates               Weight
  0.009895  0.005713  0.000000     16.000000
  0.000000  0.011426  0.000000     16.000000
 -0.009895  0.005713  0.000000     16.000000
  0.029685 -0.005713  0.000000     16.000000
  0.019790  0.022852  0.000000     16.000000
 -0.009895  0.028565  0.000000     16.000000
  0.019790 -0.022852  0.000000     16.000000
 -0.009895 -0.028565  0.000000     16.000000
 -0.029685 -0.005713  0.000000     16.000000
  0.049476 -0.017139  0.000000     16.000000
  0.039581  0.034278  0.000000     16.000000
 -0.009895  0.051417  0.000000     16.000000
  0.039581 -0.034278  0.000000     16.000000
 -0.009895 -0.051417  0.000000     16.000000
 -0.049476 -0.017139  0.000000     16.000000
 -0.049476  0.039991  0.000000     16.000000
  0.059371 -0.091407  0.000000     16.000000
 -0.009895  0.074269  0.000000     16.000000
  0.059371 -0.045704  0.000000     16.000000
 -0.009895  0.062843  0.000000     16.000000
  0.049476  0.039991  0.000000     16.000000
 -0.029685  0.028565  0.000000     16.000000
 -0.039581 -0.011426  0.000000     16.000000
 -0.009895 -0.039991  0.000000     16.000000
 -0.039581  0.011426  0.000000     16.000000
 -0.009895  0.039991  0.000000     16.000000
  0.029685  0.028565  0.000000     16.000000
 -0.009895  0.017139  0.000000     16.000000
 -0.019790  0.000000  0.000000     16.000000
 -0.009895 -0.017139  0.000000     16.000000
  0.029685  0.017139  0.000000     16.000000
  0.000000  0.034278  0.000000     16.000000
 -0.029685  0.017139  0.000000     16.000000
  0.049476  0.005713  0.000000     16.000000
  0.019790  0.045704  0.000000     16.000000
 -0.029685  0.039991  0.000000     16.000000
  0.019790 -0.045704  0.000000     16.000000
 -0.029685 -0.039991  0.000000     16.000000
 -0.049476  0.005713  0.000000     16.000000
 -0.049476  0.062843  0.000000     16.000000
  0.039581 -0.079981  0.000000     16.000000
 -0.029685  0.062843  0.000000     16.000000
  0.039581 -0.057130  0.000000     16.000000
 -0.029685  0.074269  0.000000     16.000000
  0.049476 -0.074269  0.000000     16.000000
 -0.029685  0.051417  0.000000     16.000000
  0.059371 -0.068556  0.000000     16.000000
 -0.029685  0.085694  0.000000     16.000000
  0.049476  0.028565  0.000000     16.000000
  0.000000  0.057130  0.000000     16.000000
 -0.049476  0.028565  0.000000     16.000000
 -0.049476  0.085694  0.000000     16.000000
  0.019790 -0.068556  0.000000     16.000000
 -0.049476  0.051417  0.000000     16.000000
 


--------------------------------------------------------------------------------------------------------




 Dimension of arrays:
   k-points           NKPTS =     54   k-points in BZ     NKDIM =     54   number of bands    NBANDS=    225
   number of dos      NEDOS =    301   number of ions     NIONS =     39
   non local maximal  LDIM  =      6   non local SUM 2l+1 LMDIM =     18
   total plane-waves  NPLWV = 190512
   max r-space proj   IRMAX =   2088   max aug-charges    IRDMAX=   8786
   dimension x,y,z NGX =    42 NGY =   42 NGZ =  108
   dimension x,y,z NGXF=    84 NGYF=   84 NGZF=  216
   support grid    NGXF=    84 NGYF=   84 NGZF=  216
   ions per type =              36   2   1
 NGX,Y,Z   is equivalent  to a cutoff of   8.29,  8.29,  8.21 a.u.
 NGXF,Y,Z  is equivalent  to a cutoff of  16.58, 16.58, 16.41 a.u.


 I would recommend the setting:
   dimension x,y,z NGX =    41 NGY =   41 NGZ =  107
 SYSTEM =  unknown system                          
 POSCAR =  Pt  C  H                                

 Startparameter for this run:
   NWRITE =      2    write-flag & timer
   PREC   = normal    normal or accurate (medium, high low for compatibility)
   ISTART =      0    job   : 0-new  1-cont  2-samecut
   ICHARG =      2    charge: 1-file 2-atom 10-const
   ISPIN  =      1    spin polarized calculation?
   LNONCOLLINEAR =      F non collinear calculations
   LSORBIT =      F    spin-orbit coupling
   INIWAV =      1    electr: 0-lowe 1-rand  2-diag
   LASPH  =      F    aspherical Exc in radial PAW
   METAGGA=      F    non-selfconsistent MetaGGA calc.

 Electronic Relaxation 1
   ENCUT  =  400.0 eV  29.40 Ry    5.42 a.u.  13.73 13.73 35.67*2*pi/ulx,y,z
   ENINI  =  400.0     initial cutoff
   ENAUG  =  644.9 eV  augmentation charge cutoff
   NELM   =     60;   NELMIN=  4; NELMDL= -4     # of ELM steps 
   EDIFF  = 0.1E-05   stopping-criterion for ELM
   LREAL  =      T    real-space projection
   NLSPLINE    = F    spline interpolate recip. space projectors
   LCOMPAT=      F    compatible to vasp.4.4
   GGA_COMPAT  = T    GGA compatible to vasp.4.4-vasp.4.6
   LMAXPAW     = -100 max onsite density
   LMAXMIX     =    2 max onsite mixed and CHGCAR
   VOSKOWN=      0    Vosko Wilk Nusair interpolation
   ROPT   =   -0.00050  -0.00050  -0.00050
 Ionic relaxation
   EDIFFG = 0.1E-04   stopping-criterion for IOM
   NSW    =      0    number of steps for IOM
   NBLOCK =      1;   KBLOCK =      1    inner block; outer block 
   IBRION =     -1    ionic relax: 0-MD 1-quasi-New 2-CG
   NFREE  =      0    steps in history (QN), initial steepest desc. (CG)
   ISIF   =      2    stress and relaxation
   IWAVPR =     10    prediction:  0-non 1-charg 2-wave 3-comb
   ISYM   =      2    0-nonsym 1-usesym 2-fastsym
   LCORR  =      T    Harris-Foulkes like correction to forces

   POTIM  = 0.5000    time-step for ionic-motion
   TEIN   =    0.0    initial temperature
   TEBEG  =    0.0;   TEEND  =   0.0 temperature during run
   SMASS  =  -3.00    Nose mass-parameter (am)
   estimated Nose-frequenzy (Omega)   =  0.10E-29 period in steps =****** mass=  -0.162E-26a.u.
   SCALEE = 1.0000    scale energy and forces
   NPACO  =    256;   APACO  = 16.0  distance and # of slots for P.C.
   PSTRESS=    0.0 pullay stress

  Mass of Ions in am
   POMASS = 195.08 12.01  1.00
  Ionic Valenz
   ZVAL   =  10.00  4.00  1.00
  Atomic Wigner-Seitz radii
   RWIGS  =  -1.00 -1.00 -1.00
  virtual crystal weights 
   VCA    =   1.00  1.00  1.00
   NELECT =     369.0000    total number of electrons
   NUPDOWN=      -1.0000    fix difference up-down

 DOS related values:
   EMIN   =  10.00;   EMAX   =-10.00  energy-range for DOS
   EFERMI =   0.00
   ISMEAR =    -1;   SIGMA  =   0.10  broadening in eV -4-tet -1-fermi 0-gaus

 Electronic relaxation 2 (details)
   IALGO  =     68    algorithm
   LDIAG  =      T    sub-space diagonalisation (order eigenvalues)
   LSUBROT=      F    optimize rotation matrix (better conditioning)
   TURBO    =      0    0=normal 1=particle mesh
   IRESTART =      0    0=no restart 2=restart with 2 vectors
   NREBOOT  =      0    no. of reboots
   NMIN     =      0    reboot dimension
   EREF     =   0.00    reference energy to select bands
   IMIX   =      4    mixing-type and parameters
     AMIX     =   0.40;   BMIX     =  1.00
     AMIX_MAG =   1.60;   BMIX_MAG =  1.00
     AMIN     =   0.10
     WC   =   100.;   INIMIX=   1;  MIXPRE=   1;  MAXMIX= -45

 Intra band minimization:
   WEIMIN = 0.0000     energy-eigenvalue tresh-hold
   EBREAK =  0.11E-08  absolut break condition
   DEPER  =   0.30     relativ break condition  

   TIME   =   0.40     timestep for ELM

  volume/ion in A,a.u.               =      34.45       232.50
  Fermi-wavevector in a.u.,A,eV,Ry     =   1.064105  2.010868 15.406154  1.132320
  Thomas-Fermi vector in A             =   2.199613
 
 Write flags
   LWAVE  =      F    write WAVECAR
   LCHARG =      F    write CHGCAR
   LVTOT  =      F    write LOCPOT, total local potential
   LVHAR  =      F    write LOCPOT, Hartree potential only
   LELF   =      F    write electronic localiz. function (ELF)
   LORBIT =      0    0 simple, 1 ext, 2 COOP (PROOUT)


 Dipole corrections
   LMONO  =      F    monopole corrections only (constant potential shift)
   LDIPOL =      F    correct potential (dipole corrections)
   IDIPOL =      0    1-x, 2-y, 3-z, 4-all directions 
   EPSILON=  1.0000000 bulk dielectric constant

 Exchange correlation treatment:
   GGA     =    PE    GGA type
   LEXCH   =     8    internal setting for exchange type
   VOSKOWN=      0    Vosko Wilk Nusair interpolation
   LHFCALC =     F    Hartree Fock is set to
   LHFONE  =     F    Hartree Fock one center treatment
   AEXX    =    0.0000 exact exchange contribution

 Linear response parameters
   LEPSILON=     F    determine dielectric tensor
   LRPA    =     F    only Hartree local field effects (RPA)
   LNABLA  =     F    use nabla operator in PAW spheres
   LVEL    =     F    velocity operator in full k-point grid
   LINTERFAST=   F  fast interpolation
   KINTER  =     0    interpolate to denser k-point grid
   CSHIFT  =0.1000    complex shift for real part using Kramers Kronig
   OMEGAMAX=  -1.0    maximum frequency
   DEG_THRESHOLD= 0.2000000E-02 threshold for treating states as degnerate
   RTIME   =    0.100 relaxation time in fs

 Orbital magnetization related:
   ORBITALMAG=     F  switch on orbital magnetization
   LCHIMAG   =     F  perturbation theory with respect to B field
   DQ        =  0.001000  dq finite difference perturbation B field



--------------------------------------------------------------------------------------------------------


 Static calculation
 charge density and potential will be updated during run
 non-spin polarized calculation
 RMM-DIIS sequential band-by-band and
  variant of blocked Davidson during initial phase
 perform sub-space diagonalisation
    before iterative eigenvector-optimisation
 modified Broyden-mixing scheme, WC =      100.0
 initial mixing is a Kerker type mixing with AMIX =  0.4000 and BMIX =      1.0000
 Hartree-type preconditioning will be used
 using additional bands           40
 real space projection scheme for non local part
 use partial core corrections
 calculate Harris-corrections to forces 
   (improved forces if not selfconsistent)
 use gradient corrections 
 use of overlap-Matrix (Vanderbilt PP)
 Fermi-smearing in eV        SIGMA  =   0.10


--------------------------------------------------------------------------------------------------------


  energy-cutoff  :      400.00
  volume of cell :     1343.68
      direct lattice vectors                 reciprocal lattice vectors
     8.421641764  0.000000000  0.000000000     0.118741693 -0.068555548  0.000000000
     4.210820882  7.293355709  0.000000000     0.000000000  0.137111097  0.000000000
     0.000000000  0.000000000 21.876241706     0.000000000  0.000000000  0.045711691

  length of vectors
     8.421641764  8.421641764 21.876241706     0.137111097  0.137111097  0.045711691


 
 k-points in units of 2pi/SCALE and weight: KPOINTS created by Atomic Simulation Env
   0.00989514  0.00571296  0.00000000       0.019
   0.00000000  0.01142592  0.00000000       0.019
  -0.00989514  0.00571296  0.00000000       0.019
   0.02968542 -0.00571296  0.00000000       0.019
   0.01979028  0.02285185  0.00000000       0.019
  -0.00989514  0.02856481  0.00000000       0.019
   0.01979028 -0.02285185  0.00000000       0.019
  -0.00989514 -0.02856481  0.00000000       0.019
  -0.02968542 -0.00571296  0.00000000       0.019
   0.04947571 -0.01713889  0.00000000       0.019
   0.03958056  0.03427777  0.00000000       0.019
  -0.00989514  0.05141666  0.00000000       0.019
   0.03958056 -0.03427777  0.00000000       0.019
  -0.00989514 -0.05141666  0.00000000       0.019
  -0.04947571 -0.01713889  0.00000000       0.019
  -0.04947571  0.03999074  0.00000000       0.019
   0.05937085 -0.09140740  0.00000000       0.019
  -0.00989514  0.07426851  0.00000000       0.019
   0.05937085 -0.04570370  0.00000000       0.019
  -0.00989514  0.06284259  0.00000000       0.019
   0.04947571  0.03999074  0.00000000       0.019
  -0.02968542  0.02856481  0.00000000       0.019
  -0.03958056 -0.01142592  0.00000000       0.019
  -0.00989514 -0.03999074  0.00000000       0.019
  -0.03958056  0.01142592  0.00000000       0.019
  -0.00989514  0.03999074  0.00000000       0.019
   0.02968542  0.02856481  0.00000000       0.019
  -0.00989514  0.01713889  0.00000000       0.019
  -0.01979028  0.00000000  0.00000000       0.019
  -0.00989514 -0.01713889  0.00000000       0.019
   0.02968542  0.01713889  0.00000000       0.019
   0.00000000  0.03427777  0.00000000       0.019
  -0.02968542  0.01713889  0.00000000       0.019
   0.04947571  0.00571296  0.00000000       0.019
   0.01979028  0.04570370  0.00000000       0.019
  -0.02968542  0.03999074  0.00000000       0.019
   0.01979028 -0.04570370  0.00000000       0.019
  -0.02968542 -0.03999074  0.00000000       0.019
  -0.04947571  0.00571296  0.00000000       0.019
  -0.04947571  0.06284259  0.00000000       0.019
   0.03958056 -0.07998147  0.00000000       0.019
  -0.02968542  0.06284259  0.00000000       0.019
   0.03958056 -0.05712962  0.00000000       0.019
  -0.02968542  0.07426851  0.00000000       0.019
   0.04947571 -0.07426851  0.00000000       0.019
  -0.02968542  0.05141666  0.00000000       0.019
   0.05937085 -0.06855555  0.00000000       0.019
  -0.02968542  0.08569444  0.00000000       0.019
   0.04947571  0.02856481  0.00000000       0.019
   0.00000000  0.05712962  0.00000000       0.019
  -0.04947571  0.02856481  0.00000000       0.019
  -0.04947571  0.08569444  0.00000000       0.019
   0.01979028 -0.06855555  0.00000000       0.019
  -0.04947571  0.05141666  0.00000000       0.019
 
 k-points in reciprocal lattice and weights: KPOINTS created by Atomic Simulation Env
   0.08333333  0.08333333  0.00000000       0.019
   0.00000000  0.08333333  0.00000000       0.019
  -0.08333333  0.00000000  0.00000000       0.019
   0.25000000  0.08333333  0.00000000       0.019
   0.16666667  0.25000000  0.00000000       0.019
  -0.08333333  0.16666667  0.00000000       0.019
   0.16666667 -0.08333333  0.00000000       0.019
  -0.08333333 -0.25000000  0.00000000       0.019
  -0.25000000 -0.16666667  0.00000000       0.019
   0.41666667  0.08333333  0.00000000       0.019
   0.33333333  0.41666667  0.00000000       0.019
  -0.08333333  0.33333333  0.00000000       0.019
   0.33333333 -0.08333333  0.00000000       0.019
  -0.08333333 -0.41666667  0.00000000       0.019
  -0.41666667 -0.33333333  0.00000000       0.019
  -0.41666667  0.08333333  0.00000000       0.019
   0.50000000 -0.41666667  0.00000000       0.019
  -0.08333333  0.50000000  0.00000000       0.019
   0.50000000 -0.08333333  0.00000000       0.019
  -0.08333333  0.41666667  0.00000000       0.019
   0.41666667  0.50000000  0.00000000       0.019
  -0.25000000  0.08333333  0.00000000       0.019
  -0.33333333 -0.25000000  0.00000000       0.019
  -0.08333333 -0.33333333  0.00000000       0.019
  -0.33333333 -0.08333333  0.00000000       0.019
  -0.08333333  0.25000000  0.00000000       0.019
   0.25000000  0.33333333  0.00000000       0.019
  -0.08333333  0.08333333  0.00000000       0.019
  -0.16666667 -0.08333333  0.00000000       0.019
  -0.08333333 -0.16666667  0.00000000       0.019
   0.25000000  0.25000000  0.00000000       0.019
   0.00000000  0.25000000  0.00000000       0.019
  -0.25000000  0.00000000  0.00000000       0.019
   0.41666667  0.25000000  0.00000000       0.019
   0.16666667  0.41666667  0.00000000       0.019
  -0.25000000  0.16666667  0.00000000       0.019
   0.16666667 -0.25000000  0.00000000       0.019
  -0.25000000 -0.41666667  0.00000000       0.019
  -0.41666667 -0.16666667  0.00000000       0.019
  -0.41666667  0.25000000  0.00000000       0.019
   0.33333333 -0.41666667  0.00000000       0.019
  -0.25000000  0.33333333  0.00000000       0.019
   0.33333333 -0.25000000  0.00000000       0.019
  -0.25000000  0.41666667  0.00000000       0.019
   0.41666667 -0.33333333  0.00000000       0.019
  -0.25000000  0.25000000  0.00000000       0.019
   0.50000000 -0.25000000  0.00000000       0.019
  -0.25000000  0.50000000  0.00000000       0.019
   0.41666667  0.41666667  0.00000000       0.019
   0.00000000  0.41666667  0.00000000       0.019
  -0.41666667 -0.00000000  0.00000000       0.019
  -0.41666667  0.41666667  0.00000000       0.019
   0.16666667 -0.41666667  0.00000000       0.019
  -0.41666667  0.16666667  0.00000000       0.019
 
 position of ions in fractional coordinates (direct lattice) 
   0.00000000  0.00000000  0.34283768
   0.33333333  0.00000000  0.34283768
   0.66666667  0.00000000  0.34283768
   0.00000000  0.33333333  0.34283768
   0.33333333  0.33333333  0.34283768
   0.66666667  0.33333333  0.34283768
   0.00000000  0.66666667  0.34283768
   0.33333333  0.66666667  0.34283768
   0.66666667  0.66666667  0.34283768
   0.11111111  0.11111111  0.44761256
   0.44444444  0.11111111  0.44761256
   0.77777778  0.11111111  0.44761256
   0.11111111  0.44444444  0.44761256
   0.44444444  0.44444444  0.44761256
   0.77777778  0.44444444  0.44761256
   0.11111111  0.77777778  0.44761256
   0.44444444  0.77777778  0.44761256
   0.77777778  0.77777778  0.44761256
   0.88714077  0.22392945  0.55208032
   0.22297079  0.22324692  0.55161660
   0.55595078  0.22259753  0.55238561
   0.88938321  0.55594107  0.55057290
   0.22391612  0.55246867  0.55262860
   0.55722153  0.55397859  0.55203691
   0.88585255  0.89046121  0.55262677
   0.22265102  0.88922120  0.55008305
   0.55667331  0.88962339  0.55158730
   0.00695774  0.99846546  0.65604209
   0.33114597  0.99745697  0.65648795
   0.67614115  0.98795534  0.66157622
   0.00096940  0.33510869  0.65599162
   0.32171966  0.34223996  0.66168366
   0.67629492  0.34244037  0.66198868
   0.00144582  0.66763133  0.65607549
   0.33211025  0.67334710  0.65604380
   0.66878329  0.66740125  0.65600641
   0.48394774  0.14859719  0.73195829
   0.57132375  0.23935189  0.71427947
   0.44526070  0.10940571  0.77425990
 
 position of ions in cartesian coordinates  (Angst):
   0.00000000  0.00000000  7.50000000
   2.80721392  0.00000000  7.50000000
   5.61442784  0.00000000  7.50000000
   1.40360696  2.43111857  7.50000000
   4.21082088  2.43111857  7.50000000
   7.01803480  2.43111857  7.50000000
   2.80721392  4.86223714  7.50000000
   5.61442784  4.86223714  7.50000000
   8.42164176  4.86223714  7.50000000
   1.40360696  0.81037286  9.79208057
   4.21082088  0.81037286  9.79208057
   7.01803480  0.81037286  9.79208057
   2.80721392  3.24149143  9.79208057
   5.61442784  3.24149143  9.79208057
   8.42164176  3.24149143  9.79208057
   4.21082088  5.67261000  9.79208057
   7.01803480  5.67261000  9.79208057
   9.82524872  5.67261000  9.79208057
   8.41410859  1.63319713 12.07744245
   2.81783295  1.62821923 12.06729804
   5.61933667  1.62348296 12.08412116
   9.83103503  4.05467600 12.04446578
   4.21208793  4.02935053 12.08943685
   7.02542471  4.04036290 12.07649292
  11.20990551  6.49445036 12.08939680
   5.61943830  6.48540650 12.03374985
   8.43414792  6.48833986 12.06665716
   4.26295481  7.28216378 14.35173528
   6.98890535  7.27480845 14.36148906
   9.85432153  7.20550971 14.47280129
   1.41924663  2.44406685 14.35063118
   4.15051892  2.49607780 14.47515176
   7.13746859  2.49753939 14.48182438
   2.82345212  4.86927275 14.35246589
   5.63225760  4.91095992 14.35177277
   8.44256042  4.86759471 14.35095490
   4.70135068  1.08377216 16.01249651
   5.81935186  1.74567849 15.62575034
   4.21051396  0.79793479 16.93789662
 


--------------------------------------------------------------------------------------------------------


 k-point  1 :   0.0833 0.0833 0.0000  plane waves:   24413
 k-point  2 :   0.0000 0.0833 0.0000  plane waves:   24413
 k-point  3 :  -0.0833 0.0000 0.0000  plane waves:   24413
 k-point  4 :   0.2500 0.0833 0.0000  plane waves:   24407
 k-point  5 :   0.1667 0.2500 0.0000  plane waves:   24407
 k-point  6 :  -0.0833 0.1667 0.0000  plane waves:   24407
 k-point  7 :   0.1667-0.0833 0.0000  plane waves:   24407
 k-point  8 :  -0.0833-0.2500 0.0000  plane waves:   24407
 k-point  9 :  -0.2500-0.1667 0.0000  plane waves:   24407
 k-point 10 :   0.4167 0.0833 0.0000  plane waves:   24416
 k-point 11 :   0.3333 0.4167 0.0000  plane waves:   24416
 k-point 12 :  -0.0833 0.3333 0.0000  plane waves:   24416
 k-point 13 :   0.3333-0.0833 0.0000  plane waves:   24416
 k-point 14 :  -0.0833-0.4167 0.0000  plane waves:   24416
 k-point 15 :  -0.4167-0.3333 0.0000  plane waves:   24416
 k-point 16 :  -0.4167 0.0833 0.0000  plane waves:   24418
 k-point 17 :   0.5000-0.4167 0.0000  plane waves:   24418
 k-point 18 :  -0.0833 0.5000 0.0000  plane waves:   24418
 k-point 19 :   0.5000-0.0833 0.0000  plane waves:   24418
 k-point 20 :  -0.0833 0.4167 0.0000  plane waves:   24418
 k-point 21 :   0.4167 0.5000 0.0000  plane waves:   24418
 k-point 22 :  -0.2500 0.0833 0.0000  plane waves:   24416
 k-point 23 :  -0.3333-0.2500 0.0000  plane waves:   24416
 k-point 24 :  -0.0833-0.3333 0.0000  plane waves:   24416
 k-point 25 :  -0.3333-0.0833 0.0000  plane waves:   24416
 k-point 26 :  -0.0833 0.2500 0.0000  plane waves:   24416
 k-point 27 :   0.2500 0.3333 0.0000  plane waves:   24416
 k-point 28 :  -0.0833 0.0833 0.0000  plane waves:   24411
 k-point 29 :  -0.1667-0.0833 0.0000  plane waves:   24411
 k-point 30 :  -0.0833-0.1667 0.0000  plane waves:   24411
 k-point 31 :   0.2500 0.2500 0.0000  plane waves:   24440
 k-point 32 :   0.0000 0.2500 0.0000  plane waves:   24440
 k-point 33 :  -0.2500 0.0000 0.0000  plane waves:   24440
 k-point 34 :   0.4167 0.2500 0.0000  plane waves:   24406
 k-point 35 :   0.1667 0.4167 0.0000  plane waves:   24406
 k-point 36 :  -0.2500 0.1667 0.0000  plane waves:   24406
 k-point 37 :   0.1667-0.2500 0.0000  plane waves:   24406
 k-point 38 :  -0.2500-0.4167 0.0000  plane waves:   24406
 k-point 39 :  -0.4167-0.1667 0.0000  plane waves:   24406
 k-point 40 :  -0.4167 0.2500 0.0000  plane waves:   24402
 k-point 41 :   0.3333-0.4167 0.0000  plane waves:   24402
 k-point 42 :  -0.2500 0.3333 0.0000  plane waves:   24402
 k-point 43 :   0.3333-0.2500 0.0000  plane waves:   24402
 k-point 44 :  -0.2500 0.4167 0.0000  plane waves:   24402
 k-point 45 :   0.4167-0.3333 0.0000  plane waves:   24402
 k-point 46 :  -0.2500 0.2500 0.0000  plane waves:   24390
 k-point 47 :   0.5000-0.2500 0.0000  plane waves:   24390
 k-point 48 :  -0.2500 0.5000 0.0000  plane waves:   24390
 k-point 49 :   0.4167 0.4167 0.0000  plane waves:   24430
 k-point 50 :   0.0000 0.4167 0.0000  plane waves:   24430
 k-point 51 :  -0.4167-0.0000 0.0000  plane waves:   24430
 k-point 52 :  -0.4167 0.4167 0.0000  plane waves:   24404
 k-point 53 :   0.1667-0.4167 0.0000  plane waves:   24404
 k-point 54 :  -0.4167 0.1667 0.0000  plane waves:   24404

 maximum and minimum number of plane-waves per node :      6146     6048

 maximum number of plane-waves:     24440
 maximum index in each direction: 
   IXMAX=   14   IYMAX=   14   IZMAX=   35
   IXMIN=  -14   IYMIN=  -14   IZMIN=  -35

 WARNING: aliasing errors must be expected set NGX to  58 to avoid them
 WARNING: aliasing errors must be expected set NGY to  58 to avoid them
 WARNING: aliasing errors must be expected set NGZ to 142 to avoid them
 aliasing errors are usually negligible using standard VASP settings
 and one can safely disregard these warnings

 real space projection operators:
  total allocation   :      10206.62 KBytes
  max/ min on nodes  :       2690.91       2434.70


 parallel 3D FFT for wavefunctions:
    minimum data exchange during FFTs selected (reduces bandwidth)
 parallel 3D FFT for charge:
    minimum data exchange during FFTs selected (reduces bandwidth)


 total amount of memory used by VASP on root node   291928. kBytes
========================================================================

   base      :      30000. kBytes
   nonlr-proj:       4678. kBytes
   fftplans  :       4497. kBytes
   grid      :       7849. kBytes
   one-center:        155. kBytes
   wavefun   :     244749. kBytes
 
     INWAV:  cpu time    0.0000: real time    0.0000
 Broyden mixing: mesh for mixing (old mesh)
   NGX = 27   NGY = 27   NGZ = 71
  (NGX  = 84   NGY  = 84   NGZ  =216)
  gives a total of  51759 points

 initial charge density was supplied:
 charge density of overlapping atoms calculated
 number of electron     369.0000000 magnetization 
 keeping initial charge density in first step


--------------------------------------------------------------------------------------------------------


 Maximum index for non-local projection operator          592
 Maximum index for augmentation-charges          864 (set IRDMAX)


--------------------------------------------------------------------------------------------------------


 First call to EWALD:  gamma=   0.161
 Maximum number of real-space cells 4x 4x 2
 Maximum number of reciprocal cells 2x 2x 5

 FEWALD executed in parallel
    FEWALD:  cpu time    0.0030: real time    0.0027


----------------------------------------- Iteration    1(   1)  ---------------------------------------


    POTLOK:  cpu time    0.0600: real time    0.0602
    SETDIJ:  cpu time    0.0080: real time    0.0083
     EDDAV:  cpu time   70.3023: real time   70.2718
       DOS:  cpu time    0.0030: real time    0.0026
    --------------------------------------------
      LOOP:  cpu time   70.3743: real time   70.3769

 eigenvalue-minimisations  : 24380
 total energy-change (2. order) : 0.2202750E+04  (-0.1459338E+05)
 number of electron     369.0000000 magnetization 
 augmentation part      369.0000000 magnetization 

 Free energy of the ion-electron system (eV)
  ---------------------------------------------------
  alpha Z        PSCENC =       951.71918362
  Ewald energy   TEWEN  =     93141.02482012
  -Hartree energ DENC   =   -121535.75873161
  -exchange      EXHF   =         0.00000000
  -V(xc)+E(xc)   XCENC  =       150.16199244
  PAW double counting   =     25279.62539561   -24262.57642893
  entropy T*S    EENTRO =        -0.56571305
  eigenvalues    EBANDS =      1924.35587501
  atomic energy  EATOM  =     26554.76334551
  Solvation  Ediel_sol  =         0.00000000
  ---------------------------------------------------
  free energy    TOTEN  =      2202.74973872 eV

  energy without entropy =     2203.31545177  energy(sigma->0) =     2203.03259524


--------------------------------------------------------------------------------------------------------




----------------------------------------- Iteration    1(   2)  ---------------------------------------


     EDDAV:  cpu time   83.2683: real time   84.3766
       DOS:  cpu time    0.0030: real time    0.0031
    --------------------------------------------
      LOOP:  cpu time   83.2733: real time   84.4666

 eigenvalue-minimisations  : 28360
 total energy-change (2. order) :-0.2286088E+04  (-0.2115761E+04)
 number of electron     369.0000000 magnetization 
 augmentation part      369.0000000 magnetization 

 Free energy of the ion-electron system (eV)
  ---------------------------------------------------
  alpha Z        PSCENC =       951.71918362
  Ewald energy   TEWEN  =     93141.02482012
  -Hartree energ DENC   =   -121535.75873161
  -exchange      EXHF   =         0.00000000
  -V(xc)+E(xc)   XCENC  =       150.16199244
  PAW double counting   =     25279.62539561   -24262.57642893
  entropy T*S    EENTRO =        -1.09756218
  eigenvalues    EBANDS =      -361.19988831
  atomic energy  EATOM  =     26554.76334551
  Solvation  Ediel_sol  =         0.00000000
  ---------------------------------------------------
  free energy    TOTEN  =       -83.33787372 eV

  energy without entropy =      -82.24031155  energy(sigma->0) =      -82.78909263


--------------------------------------------------------------------------------------------------------




----------------------------------------- Iteration    1(   3)  ---------------------------------------


     EDDAV:  cpu time   85.6290: real time   86.0778
       DOS:  cpu time    0.0040: real time    0.0040
    --------------------------------------------
      LOOP:  cpu time   85.6350: real time   86.1464

 eigenvalue-minimisations  : 29070
 total energy-change (2. order) :-0.1568006E+03  (-0.1420692E+03)
 number of electron     369.0000000 magnetization 
 augmentation part      369.0000000 magnetization 

 Free energy of the ion-electron system (eV)
  ---------------------------------------------------
  alpha Z        PSCENC =       951.71918362
  Ewald energy   TEWEN  =     93141.02482012
  -Hartree energ DENC   =   -121535.75873161
  -exchange      EXHF   =         0.00000000
  -V(xc)+E(xc)   XCENC  =       150.16199244
  PAW double counting   =     25279.62539561   -24262.57642893
  entropy T*S    EENTRO =        -1.88415347
  eigenvalues    EBANDS =      -517.21391413
  atomic energy  EATOM  =     26554.76334551
  Solvation  Ediel_sol  =         0.00000000
  ---------------------------------------------------
  free energy    TOTEN  =      -240.13849084 eV

  energy without entropy =     -238.25433737  energy(sigma->0) =     -239.19641410


--------------------------------------------------------------------------------------------------------




----------------------------------------- Iteration    1(   4)  ---------------------------------------


     EDDAV:  cpu time   89.3574: real time   89.4148
       DOS:  cpu time    0.0050: real time    0.0042
    CHARGE:  cpu time    2.3416: real time    2.3881
    MIXING:  cpu time    0.0020: real time    0.0020
    --------------------------------------------
      LOOP:  cpu time   91.7071: real time   91.8451

 eigenvalue-minimisations  : 31710
 total energy-change (2. order) :-0.6714205E+01  (-0.6495519E+01)
 number of electron     369.0000005 magnetization 
 augmentation part      104.6607665 magnetization 

 Broyden mixing:
  rms(total) = 0.65360E+01    rms(broyden)= 0.65360E+01
  rms(prec ) = 0.66484E+01
  weight for this iteration     100.00

 Free energy of the ion-electron system (eV)
  ---------------------------------------------------
  alpha Z        PSCENC =       951.71918362
  Ewald energy   TEWEN  =     93141.02482012
  -Hartree energ DENC   =   -121535.75873161
  -exchange      EXHF   =         0.00000000
  -V(xc)+E(xc)   XCENC  =       150.16199244
  PAW double counting   =     25279.62539561   -24262.57642893
  entropy T*S    EENTRO =        -1.93671805
  eigenvalues    EBANDS =      -523.87555422
  atomic energy  EATOM  =     26554.76334551
  Solvation  Ediel_sol  =         0.00000000
  ---------------------------------------------------
  free energy    TOTEN  =      -246.85269550 eV

  energy without entropy =     -244.91597745  energy(sigma->0) =     -245.88433648


--------------------------------------------------------------------------------------------------------




----------------------------------------- Iteration    1(   5)  ---------------------------------------


    POTLOK:  cpu time    1.4158: real time    1.7000
    SETDIJ:  cpu time    0.1560: real time    0.1560
    EDDIAG:  cpu time   13.6799: real time   13.6899
  RMM-DIIS:  cpu time   28.6956: real time   28.7257
    ORTHCH:  cpu time    3.0185: real time    3.0158
       DOS:  cpu time    0.0040: real time    0.0040
    CHARGE:  cpu time    2.2956: real time    2.2943
    MIXING:  cpu time    0.0020: real time    0.0020
    --------------------------------------------
      LOOP:  cpu time   49.2695: real time   49.6656

 eigenvalue-minimisations  : 25734
 total energy-change (2. order) : 0.1088382E+02  (-0.5263722E+01)
 number of electron     369.0000031 magnetization 
 augmentation part      111.3374900 magnetization 

 Broyden mixing:
  rms(total) = 0.43834E+01    rms(broyden)= 0.43833E+01
  rms(prec ) = 0.46876E+01
  weight for this iteration     100.00

 eigenvalues of (default mixing * dielectric matrix)
  average eigenvalue GAMMA=   1.3247
  1.3247

 Free energy of the ion-electron system (eV)
  ---------------------------------------------------
  alpha Z        PSCENC =       951.71918362
  Ewald energy   TEWEN  =     93141.02482012
  -Hartree energ DENC   =   -121108.87240493
  -exchange      EXHF   =         0.00000000
  -V(xc)+E(xc)   XCENC  =       141.47517585
  PAW double counting   =     28100.13659630   -27136.14050482
  entropy T*S    EENTRO =        -1.94162420
  eigenvalues    EBANDS =      -878.13346491
  atomic energy  EATOM  =     26554.76334551
  Solvation  Ediel_sol  =         0.00000000
  ---------------------------------------------------
  free energy    TOTEN  =      -235.96887747 eV

  energy without entropy =     -234.02725328  energy(sigma->0) =     -234.99806537


--------------------------------------------------------------------------------------------------------




----------------------------------------- Iteration    1(   6)  ---------------------------------------


    POTLOK:  cpu time    0.0540: real time    0.0546
    SETDIJ:  cpu time    0.0080: real time    0.0078
    EDDIAG:  cpu time   10.7914: real time   10.8032
  RMM-DIIS:  cpu time   30.2104: real time   30.2662
    ORTHCH:  cpu time    2.9625: real time    3.0548
       DOS:  cpu time    0.0040: real time    0.0036
    CHARGE:  cpu time    2.3556: real time    2.3529
    MIXING:  cpu time    0.0020: real time    0.0021
    --------------------------------------------
      LOOP:  cpu time   46.3879: real time   46.5676

 eigenvalue-minimisations  : 26132
 total energy-change (2. order) :-0.4842036E+02  (-0.7923156E+01)
 number of electron     368.9999977 magnetization 
 augmentation part      108.9792030 magnetization 

 Broyden mixing:
  rms(total) = 0.58841E+01    rms(broyden)= 0.58839E+01
  rms(prec ) = 0.73831E+01
  weight for this iteration     100.00

 eigenvalues of (default mixing * dielectric matrix)
  average eigenvalue GAMMA=   1.0958
  1.9206  0.2710

 Free energy of the ion-electron system (eV)
  ---------------------------------------------------
  alpha Z        PSCENC =       951.71918362
  Ewald energy   TEWEN  =     93141.02482012
  -Hartree energ DENC   =   -121429.93699470
  -exchange      EXHF   =         0.00000000
  -V(xc)+E(xc)   XCENC  =       138.92496359
  PAW double counting   =     30144.44820036   -29201.30967897
  entropy T*S    EENTRO =        -1.17787609
  eigenvalues    EBANDS =      -582.84519987
  atomic energy  EATOM  =     26554.76334551
  Solvation  Ediel_sol  =         0.00000000
  ---------------------------------------------------
  free energy    TOTEN  =      -284.38923643 eV

  energy without entropy =     -283.21136034  energy(sigma->0) =     -283.80029839


--------------------------------------------------------------------------------------------------------




----------------------------------------- Iteration    1(   7)  ---------------------------------------


    POTLOK:  cpu time    0.6559: real time    0.6574
    SETDIJ:  cpu time    0.0080: real time    0.0079
    EDDIAG:  cpu time   11.1013: real time   11.1263
  RMM-DIIS:  cpu time   28.2127: real time   28.3926
    ORTHCH:  cpu time    3.1095: real time    3.1395
       DOS:  cpu time    0.0040: real time    0.0036
    CHARGE:  cpu time    2.3696: real time    2.3675
    MIXING:  cpu time    0.0020: real time    0.0022
    --------------------------------------------
      LOOP:  cpu time   45.4641: real time   45.7797

 eigenvalue-minimisations  : 25226
 total energy-change (2. order) : 0.4120638E+02  (-0.3276544E+01)
 number of electron     368.9999984 magnetization 
 augmentation part      111.9456157 magnetization 

 Broyden mixing:
  rms(total) = 0.32759E+01    rms(broyden)= 0.32758E+01
  rms(prec ) = 0.41980E+01
  weight for this iteration     100.00

 eigenvalues of (default mixing * dielectric matrix)
  average eigenvalue GAMMA=   0.9038
  2.0581  0.3266  0.3266

 Free energy of the ion-electron system (eV)
  ---------------------------------------------------
  alpha Z        PSCENC =       951.71918362
  Ewald energy   TEWEN  =     93141.02482012
  -Hartree energ DENC   =   -121208.05073139
  -exchange      EXHF   =         0.00000000
  -V(xc)+E(xc)   XCENC  =       137.36248619
  PAW double counting   =     31782.75373419   -30860.38401872
  entropy T*S    EENTRO =        -1.55932833
  eigenvalues    EBANDS =      -740.81234585
  atomic energy  EATOM  =     26554.76334551
  Solvation  Ediel_sol  =         0.00000000
  ---------------------------------------------------
  free energy    TOTEN  =      -243.18285467 eV

  energy without entropy =     -241.62352634  energy(sigma->0) =     -242.40319051


--------------------------------------------------------------------------------------------------------




----------------------------------------- Iteration    1(   8)  ---------------------------------------


    POTLOK:  cpu time    0.0570: real time    0.0573
    SETDIJ:  cpu time    0.0080: real time    0.0079
    EDDIAG:  cpu time   10.9483: real time   11.0806
  RMM-DIIS:  cpu time   28.8836: real time   29.3424
    ORTHCH:  cpu time    2.9775: real time    3.0480
       DOS:  cpu time    0.0040: real time    0.0037
    CHARGE:  cpu time    2.2677: real time    2.3370
    MIXING:  cpu time    0.0020: real time    0.0023
    --------------------------------------------
      LOOP:  cpu time   45.1491: real time   45.9013

 eigenvalue-minimisations  : 25697
 total energy-change (2. order) :-0.4332066E+00  (-0.2211055E+01)
 number of electron     369.0000003 magnetization 
 augmentation part      112.3666975 magnetization 

 Broyden mixing:
  rms(total) = 0.32893E+01    rms(broyden)= 0.32891E+01
  rms(prec ) = 0.50771E+01
  weight for this iteration     100.00

 eigenvalues of (default mixing * dielectric matrix)
  average eigenvalue GAMMA=   0.8389
  2.1987  0.6943  0.2998  0.1627

 Free energy of the ion-electron system (eV)
  ---------------------------------------------------
  alpha Z        PSCENC =       951.71918362
  Ewald energy   TEWEN  =     93141.02482012
  -Hartree energ DENC   =   -121139.59809517
  -exchange      EXHF   =         0.00000000
  -V(xc)+E(xc)   XCENC  =       137.53957460
  PAW double counting   =     32179.33741031   -31260.63012053
  entropy T*S    EENTRO =        -1.34289463
  eigenvalues    EBANDS =      -806.42928509
  atomic energy  EATOM  =     26554.76334551
  Solvation  Ediel_sol  =         0.00000000
  ---------------------------------------------------
  free energy    TOTEN  =      -243.61606125 eV

  energy without entropy =     -242.27316662  energy(sigma->0) =     -242.94461393


--------------------------------------------------------------------------------------------------------




----------------------------------------- Iteration    1(   9)  ---------------------------------------


    POTLOK:  cpu time    0.4829: real time    0.5847
    SETDIJ:  cpu time    0.0080: real time    0.0079
    EDDIAG:  cpu time   10.9043: real time   10.9229
  RMM-DIIS:  cpu time   30.0734: real time   30.2803
    ORTHCH:  cpu time    3.1645: real time    3.1629
       DOS:  cpu time    0.0040: real time    0.0037
    CHARGE:  cpu time    2.3386: real time    2.3370
    MIXING:  cpu time    0.0030: real time    0.0024
    --------------------------------------------
      LOOP:  cpu time   46.9799: real time   47.3756

 eigenvalue-minimisations  : 25974
 total energy-change (2. order) : 0.3979998E+01  (-0.1341493E+01)
 number of electron     369.0000028 magnetization 
 augmentation part      112.0885307 magnetization 

 Broyden mixing:
  rms(total) = 0.28844E+01    rms(broyden)= 0.28842E+01
  rms(prec ) = 0.38384E+01
  weight for this iteration     100.00

 eigenvalues of (default mixing * dielectric matrix)
  average eigenvalue GAMMA=   0.7796
  2.3780  0.8678  0.2638  0.2638  0.1247

 Free energy of the ion-electron system (eV)
  ---------------------------------------------------
  alpha Z        PSCENC =       951.71918362
  Ewald energy   TEWEN  =     93141.02482012
  -Hartree energ DENC   =   -121165.37251392
  -exchange      EXHF   =         0.00000000
  -V(xc)+E(xc)   XCENC  =       137.79179836
  PAW double counting   =     32468.56758388   -31551.52175264
  entropy T*S    EENTRO =        -1.91035124
  eigenvalues    EBANDS =      -774.69817729
  atomic energy  EATOM  =     26554.76334551
  Solvation  Ediel_sol  =         0.00000000
  ---------------------------------------------------
  free energy    TOTEN  =      -239.63606359 eV

  energy without entropy =     -237.72571236  energy(sigma->0) =     -238.68088798


--------------------------------------------------------------------------------------------------------




----------------------------------------- Iteration    1(  10)  ---------------------------------------


    POTLOK:  cpu time    0.0580: real time    0.0580
    SETDIJ:  cpu time    0.0080: real time    0.0080
    EDDIAG:  cpu time   10.9193: real time   10.9275
  RMM-DIIS:  cpu time   29.1646: real time   29.1560
    ORTHCH:  cpu time    3.0745: real time    3.1282
       DOS:  cpu time    0.0030: real time    0.0037
    CHARGE:  cpu time    2.2487: real time    2.3152
    MIXING:  cpu time    0.0020: real time    0.0025
    --------------------------------------------
      LOOP:  cpu time   45.4811: real time   45.6215

 eigenvalue-minimisations  : 25213
 total energy-change (2. order) : 0.8920235E+01  (-0.3202607E+00)
 number of electron     369.0000014 magnetization 
 augmentation part      112.3116278 magnetization 

 Broyden mixing:
  rms(total) = 0.99590E+00    rms(broyden)= 0.99583E+00
  rms(prec ) = 0.11138E+01
  weight for this iteration     100.00

 eigenvalues of (default mixing * dielectric matrix)
  average eigenvalue GAMMA=   0.7268
  2.1313  0.8622  0.6382  0.3029  0.3029  0.1230

 Free energy of the ion-electron system (eV)
  ---------------------------------------------------
  alpha Z        PSCENC =       951.71918362
  Ewald energy   TEWEN  =     93141.02482012
  -Hartree energ DENC   =   -121171.55312936
  -exchange      EXHF   =         0.00000000
  -V(xc)+E(xc)   XCENC  =       137.89010889
  PAW double counting   =     32813.22124481   -31899.17474266
  entropy T*S    EENTRO =        -2.00145694
  eigenvalues    EBANDS =      -756.60520271
  atomic energy  EATOM  =     26554.76334551
  Solvation  Ediel_sol  =         0.00000000
  ---------------------------------------------------
  free energy    TOTEN  =      -230.71582872 eV

  energy without entropy =     -228.71437178  energy(sigma->0) =     -229.71510025


--------------------------------------------------------------------------------------------------------




----------------------------------------- Iteration    1(  11)  ---------------------------------------


    POTLOK:  cpu time    1.5958: real time    1.5959
    SETDIJ:  cpu time    0.1470: real time    0.1460
    EDDIAG:  cpu time   11.3043: real time   11.3751
  RMM-DIIS:  cpu time   28.5847: real time   28.8235
    ORTHCH:  cpu time    2.9735: real time    2.9914
       DOS:  cpu time    0.0040: real time    0.0039
    CHARGE:  cpu time    2.3186: real time    2.3171
    MIXING:  cpu time    0.0020: real time    0.0026
    --------------------------------------------
      LOOP:  cpu time   46.9319: real time   47.3213

 eigenvalue-minimisations  : 25695
 total energy-change (2. order) : 0.1430922E+00  (-0.1641321E+00)
 number of electron     369.0000020 magnetization 
 augmentation part      112.1672187 magnetization 

 Broyden mixing:
  rms(total) = 0.87146E+00    rms(broyden)= 0.87142E+00
  rms(prec ) = 0.10947E+01
  weight for this iteration     100.00

 eigenvalues of (default mixing * dielectric matrix)
  average eigenvalue GAMMA=   0.6910
  2.1116  0.8911  0.5845  0.5845  0.2714  0.2714  0.1223

 Free energy of the ion-electron system (eV)
  ---------------------------------------------------
  alpha Z        PSCENC =       951.71918362
  Ewald energy   TEWEN  =     93141.02482012
  -Hartree energ DENC   =   -121170.83852962
  -exchange      EXHF   =         0.00000000
  -V(xc)+E(xc)   XCENC  =       138.27637319
  PAW double counting   =     32602.76459626   -31685.84457411
  entropy T*S    EENTRO =        -2.09607711
  eigenvalues    EBANDS =      -760.34187441
  atomic energy  EATOM  =     26554.76334551
  Solvation  Ediel_sol  =         0.00000000
  ---------------------------------------------------
  free energy    TOTEN  =      -230.57273655 eV

  energy without entropy =     -228.47665945  energy(sigma->0) =     -229.52469800


--------------------------------------------------------------------------------------------------------




----------------------------------------- Iteration    1(  12)  ---------------------------------------


    POTLOK:  cpu time    0.0580: real time    0.0585
    SETDIJ:  cpu time    0.0280: real time    0.0280
    EDDIAG:  cpu time   10.8573: real time   10.8797
  RMM-DIIS:  cpu time   30.3414: real time   30.7381
    ORTHCH:  cpu time    3.0965: real time    3.1381
       DOS:  cpu time    0.0040: real time    0.0040
    CHARGE:  cpu time    2.3456: real time    2.3439
    MIXING:  cpu time    0.0030: real time    0.0029
    --------------------------------------------
      LOOP:  cpu time   46.7359: real time   47.2169

 eigenvalue-minimisations  : 25585
 total energy-change (2. order) : 0.5664423E+00  (-0.6346853E-01)
 number of electron     369.0000015 magnetization 
 augmentation part      112.0977705 magnetization 

 Broyden mixing:
  rms(total) = 0.45402E+00    rms(broyden)= 0.45399E+00
  rms(prec ) = 0.54293E+00
  weight for this iteration     100.00

 eigenvalues of (default mixing * dielectric matrix)
  average eigenvalue GAMMA=   0.7037
  2.1746  0.8720  0.8033  0.8033  0.1224  0.2860  0.2860  0.2821

 Free energy of the ion-electron system (eV)
  ---------------------------------------------------
  alpha Z        PSCENC =       951.71918362
  Ewald energy   TEWEN  =     93141.02482012
  -Hartree energ DENC   =   -121181.66497154
  -exchange      EXHF   =         0.00000000
  -V(xc)+E(xc)   XCENC  =       138.33028489
  PAW double counting   =     32584.90352509   -31667.71163768
  entropy T*S    EENTRO =        -2.07735860
  eigenvalues    EBANDS =      -749.29348568
  atomic energy  EATOM  =     26554.76334551
  Solvation  Ediel_sol  =         0.00000000
  ---------------------------------------------------
  free energy    TOTEN  =      -230.00629427 eV

  energy without entropy =     -227.92893567  energy(sigma->0) =     -228.96761497


--------------------------------------------------------------------------------------------------------




----------------------------------------- Iteration    1(  13)  ---------------------------------------


    POTLOK:  cpu time    1.7487: real time    1.7489
    SETDIJ:  cpu time    0.0090: real time    0.0081
    EDDIAG:  cpu time   10.7394: real time   10.9070
  RMM-DIIS:  cpu time   30.4584: real time   30.6919
    ORTHCH:  cpu time    2.9606: real time    2.9873
       DOS:  cpu time    0.0040: real time    0.0037
    CHARGE:  cpu time    2.3416: real time    2.3808
    MIXING:  cpu time    0.0020: real time    0.0029
    --------------------------------------------
      LOOP:  cpu time   48.2667: real time   48.7552

 eigenvalue-minimisations  : 25961
 total energy-change (2. order) : 0.1091685E+00  (-0.2827449E-01)
 number of electron     369.0000009 magnetization 
 augmentation part      112.0725670 magnetization 

 Broyden mixing:
  rms(total) = 0.26418E+00    rms(broyden)= 0.26415E+00
  rms(prec ) = 0.30799E+00
  weight for this iteration     100.00

 eigenvalues of (default mixing * dielectric matrix)
  average eigenvalue GAMMA=   0.6955
  2.1429  0.9877  0.9877  0.8157  0.3896  0.1224  0.2768  0.2768  0.2595

 Free energy of the ion-electron system (eV)
  ---------------------------------------------------
  alpha Z        PSCENC =       951.71918362
  Ewald energy   TEWEN  =     93141.02482012
  -Hartree energ DENC   =   -121194.59535438
  -exchange      EXHF   =         0.00000000
  -V(xc)+E(xc)   XCENC  =       138.30375390
  PAW double counting   =     32609.91961919   -31693.10246004
  entropy T*S    EENTRO =        -2.06051758
  eigenvalues    EBANDS =      -735.86951608
  atomic energy  EATOM  =     26554.76334551
  Solvation  Ediel_sol  =         0.00000000
  ---------------------------------------------------
  free energy    TOTEN  =      -229.89712574 eV

  energy without entropy =     -227.83660816  energy(sigma->0) =     -228.86686695


--------------------------------------------------------------------------------------------------------




----------------------------------------- Iteration    1(  14)  ---------------------------------------


    POTLOK:  cpu time    0.0570: real time    0.0573
    SETDIJ:  cpu time    0.0080: real time    0.0080
    EDDIAG:  cpu time   10.8633: real time   11.0823
  RMM-DIIS:  cpu time   29.8775: real time   30.2584
    ORTHCH:  cpu time    3.0235: real time    3.0314
       DOS:  cpu time    0.0040: real time    0.0035
    CHARGE:  cpu time    2.2527: real time    2.3319
    MIXING:  cpu time    0.0030: real time    0.0031
    --------------------------------------------
      LOOP:  cpu time   46.0900: real time   46.7985

 eigenvalue-minimisations  : 26351
 total energy-change (2. order) : 0.2148618E-01  (-0.6784766E-02)
 number of electron     369.0000008 magnetization 
 augmentation part      112.0378996 magnetization 

 Broyden mixing:
  rms(total) = 0.21790E+00    rms(broyden)= 0.21789E+00
  rms(prec ) = 0.25933E+00
  weight for this iteration     100.00

 eigenvalues of (default mixing * dielectric matrix)
  average eigenvalue GAMMA=   0.6988
  1.9685  1.2587  1.2587  0.6134  0.6134  0.1224  0.2849  0.2849  0.3298  0.2532

 Free energy of the ion-electron system (eV)
  ---------------------------------------------------
  alpha Z        PSCENC =       951.71918362
  Ewald energy   TEWEN  =     93141.02482012
  -Hartree energ DENC   =   -121202.62463482
  -exchange      EXHF   =         0.00000000
  -V(xc)+E(xc)   XCENC  =       138.34667199
  PAW double counting   =     32592.29081710   -31675.26028067
  entropy T*S    EENTRO =        -2.06445815
  eigenvalues    EBANDS =      -728.07110425
  atomic energy  EATOM  =     26554.76334551
  Solvation  Ediel_sol  =         0.00000000
  ---------------------------------------------------
  free energy    TOTEN  =      -229.87563957 eV

  energy without entropy =     -227.81118142  energy(sigma->0) =     -228.84341049


--------------------------------------------------------------------------------------------------------




----------------------------------------- Iteration    1(  15)  ---------------------------------------


    POTLOK:  cpu time    0.8369: real time    0.9060
    SETDIJ:  cpu time    0.0080: real time    0.0081
    EDDIAG:  cpu time   10.7874: real time   10.7893
  RMM-DIIS:  cpu time   29.9185: real time   30.0171
    ORTHCH:  cpu time    3.0115: real time    3.0413
       DOS:  cpu time    0.0030: real time    0.0037
    CHARGE:  cpu time    2.3136: real time    2.3117
    MIXING:  cpu time    0.0040: real time    0.0034
    --------------------------------------------
      LOOP:  cpu time   46.8839: real time   47.1726

 eigenvalue-minimisations  : 25696
 total energy-change (2. order) : 0.2064614E-01  (-0.2110082E-02)
 number of electron     369.0000009 magnetization 
 augmentation part      112.0062381 magnetization 

 Broyden mixing:
  rms(total) = 0.16635E+00    rms(broyden)= 0.16635E+00
  rms(prec ) = 0.19815E+00
  weight for this iteration     100.00

 eigenvalues of (default mixing * dielectric matrix)
  average eigenvalue GAMMA=   0.7681
  2.0830  2.0830  1.2036  0.6899  0.6899  0.4720  0.1224  0.2817  0.2817  0.3008
  0.2408

 Free energy of the ion-electron system (eV)
  ---------------------------------------------------
  alpha Z        PSCENC =       951.71918362
  Ewald energy   TEWEN  =     93141.02482012
  -Hartree energ DENC   =   -121208.49241615
  -exchange      EXHF   =         0.00000000
  -V(xc)+E(xc)   XCENC  =       138.42470263
  PAW double counting   =     32556.62958206   -31639.11603873
  entropy T*S    EENTRO =        -2.07256528
  eigenvalues    EBANDS =      -722.73560721
  atomic energy  EATOM  =     26554.76334551
  Solvation  Ediel_sol  =         0.00000000
  ---------------------------------------------------
  free energy    TOTEN  =      -229.85499342 eV

  energy without entropy =     -227.78242815  energy(sigma->0) =     -228.81871078


--------------------------------------------------------------------------------------------------------




----------------------------------------- Iteration    1(  16)  ---------------------------------------


    POTLOK:  cpu time    0.0580: real time    0.0584
    SETDIJ:  cpu time    0.0080: real time    0.0080
    EDDIAG:  cpu time   10.7834: real time   10.7856
  RMM-DIIS:  cpu time   28.6816: real time   29.1255
    ORTHCH:  cpu time    3.0915: real time    3.1003
       DOS:  cpu time    0.0030: real time    0.0037
    CHARGE:  cpu time    2.2947: real time    2.2923
    MIXING:  cpu time    0.0030: real time    0.0035
    --------------------------------------------
      LOOP:  cpu time   44.9242: real time   45.3996

 eigenvalue-minimisations  : 25435
 total energy-change (2. order) : 0.1346118E-01  (-0.2378451E-02)
 number of electron     369.0000011 magnetization 
 augmentation part      111.9812102 magnetization 

 Broyden mixing:
  rms(total) = 0.12087E+00    rms(broyden)= 0.12086E+00
  rms(prec ) = 0.15643E+00
  weight for this iteration     100.00

 eigenvalues of (default mixing * dielectric matrix)
  average eigenvalue GAMMA=   0.7831
  2.2217  2.2217  1.2896  0.7311  0.7311  0.6379  0.1224  0.2823  0.2823  0.3492
  0.2900  0.2378

 Free energy of the ion-electron system (eV)
  ---------------------------------------------------
  alpha Z        PSCENC =       951.71918362
  Ewald energy   TEWEN  =     93141.02482012
  -Hartree energ DENC   =   -121215.19139231
  -exchange      EXHF   =         0.00000000
  -V(xc)+E(xc)   XCENC  =       138.53184241
  PAW double counting   =     32523.43402377   -31605.41821215
  entropy T*S    EENTRO =        -2.08638508
  eigenvalues    EBANDS =      -716.61875814
  atomic energy  EATOM  =     26554.76334551
  Solvation  Ediel_sol  =         0.00000000
  ---------------------------------------------------
  free energy    TOTEN  =      -229.84153225 eV

  energy without entropy =     -227.75514717  energy(sigma->0) =     -228.79833971


--------------------------------------------------------------------------------------------------------




[...]
    153       0.2956      1.99997
    154       0.3278      1.99996
    155       0.3541      1.99995
    156       0.3967      1.99993
    157       0.4630      1.99986
    158       0.5384      1.99971
    159       0.5995      1.99946
    160       0.6493      1.99911
    161       0.7070      1.99842
    162       0.7595      1.99734
    163       0.7735      1.99694
    164       0.7984      1.99607
    165       0.8468      1.99363
    166       0.8688      1.99207
    167       0.9381      1.98422
    168       0.9533      1.98164
    169       1.0167      1.96566
    170       1.0514      1.95178
    171       1.1002      1.92259
    172       1.1270      1.90000
    173       1.1591      1.86471
    174       1.1693      1.85130
    175       1.2000      1.80308
    176       1.2613      1.66446
    177       1.3114      1.50073
    178       1.3174      1.47784
    179       1.3331      1.41517
    180       1.3478      1.35253
    181       1.3812      1.19870
    182       1.3890      1.16083
    183       1.4112      1.05126
    184       1.4960      0.64379
    185       1.5297      0.50608
    186       1.5533      0.42209
    187       1.6022      0.28197
    188       1.6387      0.20451
    189       1.6635      0.16323
    190       1.6747      0.14728
    191       1.7080      0.10781
    192       1.7168      0.09919
    193       1.7489      0.07290
    194       1.8266      0.03419
    195       1.9698      0.00827
    196       2.4024      0.00011
    197       2.7636      0.00000
    198       2.8380      0.00000
    199       2.8701      0.00000
    200       2.9282      0.00000
    201       3.0536      0.00000
    202       3.1830      0.00000
    203       3.2982      0.00000
    204       3.4539      0.00000
    205       3.6024      0.00000
    206       3.7049      0.00000
    207       3.8153      0.00000
    208       3.9738      0.00000
    209       4.0998      0.00000
    210       4.2393      0.00000
    211       4.3017      0.00000
    212       4.4024      0.00000
    213       4.5144      0.00000
    214       4.5926      0.00000
    215       4.7933      0.00000
    216       4.8568      0.00000
    217       4.9706      0.00000
    218       5.0985      0.00000
    219       5.5939      0.00000
    220       5.8416      0.00000
    221       5.9555      0.00000
    222       6.0330      0.00000
    223       6.2215      0.00000
    224       6.2906      0.00000
    225       6.4405      0.00000


--------------------------------------------------------------------------------------------------------


 soft charge-density along one line, spin component           1
         0         1         2         3         4         5         6         7         8         9
 total charge-density along one line
 
 pseudopotential strength for first ion, spin component:           1
 -6.038   0.000   0.001  -0.012   0.000  -6.154   0.000   0.001
  0.000  -5.934  -0.002   0.000  -0.010   0.000  -6.052  -0.002
  0.001  -0.002  -5.930   0.001  -0.001   0.001  -0.002  -6.049
 -0.012   0.000   0.001  -5.934   0.000  -0.012   0.000   0.001
  0.000  -0.010  -0.001   0.000  -6.038   0.000  -0.009  -0.001
 -6.154   0.000   0.001  -0.012   0.000  -6.253   0.000   0.001
  0.000  -6.052  -0.002   0.000  -0.009   0.000  -6.154  -0.002
  0.001  -0.002  -6.049   0.001  -0.001   0.001  -0.002  -6.151
 -0.012   0.000   0.001  -6.053   0.000  -0.012   0.000   0.001
  0.000  -0.009  -0.001   0.000  -6.153   0.000  -0.009  -0.001
  0.000   0.001  -0.032  -0.000  -0.000   0.000   0.001  -0.031
  0.000   0.001  -0.047  -0.000  -0.000   0.000   0.001  -0.046
  0.000  -0.004   0.000  -0.000   0.001   0.000  -0.003   0.000
 -0.000  -0.001  -0.008   0.000  -0.000   0.000  -0.001  -0.008
 -0.000  -0.000  -0.000  -0.004   0.000  -0.000   0.000  -0.000
  0.000  -0.003   0.000   0.000   0.001   0.000  -0.002   0.000
  0.000  -0.001  -0.008   0.001  -0.000   0.000  -0.001  -0.008
 -0.000   0.000  -0.000  -0.003   0.000  -0.000   0.000  -0.000
 total augmentation occupancy for first ion, spin component:           1
  3.149   0.007   0.015  -0.204   0.001  -2.020  -0.005  -0.009   0.033  -0.000   0.003   0.001  -0.002  -0.001  -0.048   0.000
  0.007   3.911  -0.036   0.007  -0.191  -0.005  -2.090   0.023  -0.004   0.030  -0.018   0.002  -0.256   0.006   0.000   0.012
  0.015  -0.036   4.131   0.011  -0.033  -0.009   0.023  -2.545  -0.007   0.021   0.764  -0.118   0.005  -0.307  -0.005   0.000
 -0.204   0.007   0.011   3.868   0.002   0.039  -0.004  -0.007  -2.064  -0.002   0.005  -0.001  -0.000  -0.003  -0.256  -0.000
  0.001  -0.191  -0.033   0.002   3.157  -0.000   0.023   0.020  -0.002  -2.025  -0.006  -0.002  -0.051   0.004  -0.001   0.004
 -2.020  -0.005  -0.009   0.039  -0.000   2.533   0.004   0.006   0.084  -0.000  -0.002  -0.000   0.001   0.001   0.049   0.000
 -0.005  -2.090   0.023  -0.004   0.023   0.004   2.100  -0.015   0.002   0.091   0.010   0.001   0.245  -0.003  -0.000  -0.016
 -0.009   0.023  -2.545  -0.007   0.020   0.006  -0.015   2.721   0.004  -0.013  -0.662   0.083  -0.003   0.364   0.003   0.000
  0.033  -0.004  -0.007  -2.064  -0.002   0.084   0.002   0.004   2.084   0.002  -0.003  -0.000   0.000   0.002   0.245   0.000
 -0.000   0.030   0.021  -0.002  -2.025  -0.000   0.091  -0.013   0.002   2.536   0.005   0.001   0.050  -0.002   0.000  -0.003
  0.003  -0.018   0.764   0.005  -0.006  -0.002   0.010  -0.662  -0.003   0.005   2.236  -0.445   0.002   0.186  -0.001  -0.000
  0.001   0.002  -0.118  -0.001  -0.002  -0.000   0.001   0.083  -0.000   0.001  -0.445   0.110   0.000  -0.065  -0.000   0.000
 -0.002  -0.256   0.005  -0.000  -0.051   0.001   0.245  -0.003   0.000   0.050   0.002   0.000   0.259  -0.000   0.000  -0.014
 -0.001   0.006  -0.307  -0.003   0.004   0.001  -0.003   0.364   0.002  -0.002   0.186  -0.065  -0.000   0.147   0.001  -0.000
 -0.048   0.000  -0.005  -0.256  -0.001   0.049  -0.000   0.003   0.245   0.000  -0.001  -0.000   0.000   0.001   0.260  -0.000
  0.000   0.012   0.000  -0.000   0.004   0.000  -0.016   0.000   0.000  -0.003  -0.000   0.000  -0.014  -0.000  -0.000   0.001
 -0.000  -0.001   0.003   0.001   0.000   0.000   0.000  -0.019  -0.000  -0.000  -0.018   0.005   0.000  -0.009  -0.000   0.000
  0.003  -0.000   0.000   0.012   0.000  -0.003   0.000  -0.000  -0.017   0.000   0.000  -0.000  -0.000  -0.000  -0.014   0.000


------------------------ aborting loop because EDIFF is reached ----------------------------------------


    CHARGE:  cpu time    2.3196: real time    2.3178
    FORLOC:  cpu time    0.0160: real time    0.0166
    FORNL :  cpu time   11.3863: real time   11.4564
    STRESS:  cpu time   33.2409: real time   33.4892
    FORCOR:  cpu time    0.0710: real time    0.0710
    FORHAR:  cpu time    0.0290: real time    0.0292
    MIXING:  cpu time    0.0090: real time    0.0090
    OFIELD:  cpu time    0.0000: real time    0.0000

  FORCE on cell =-STRESS in cart. coord.  units (eV):
  Direction    XX          YY          ZZ          XY          YZ          ZX
  --------------------------------------------------------------------------------------
  Alpha Z   951.71918   951.71918   951.71918
  Ewald  113092.83879113024.08994************    59.39725   -53.37245   -92.71302
  Hartree119504.80240119482.46337************    19.48423   -15.10180   -26.23884
  E(xc)   -1624.86038 -1625.05987 -1634.45988     0.17525    -0.20929    -0.36334
  Local  ************************243889.01169   -73.54652    61.49468   106.72275
  n-local   158.49406   158.70352   140.14650    -0.41280    -0.89655    -1.70645
  augment  1879.51786  1879.55411  1927.53886     0.11804     1.32132     2.40934
  Kinetic  5315.25774  5320.75857  5449.47668    -4.61561     6.64973    11.66010
  Fock        0.00000     0.00000     0.00000     0.00000     0.00000     0.00000
  -------------------------------------------------------------------------------------
  Total     -29.66528   -30.41953     0.03111     0.59984    -0.11436    -0.22946
  in kB     -35.37220   -36.27155     0.03710     0.71523    -0.13636    -0.27360
  external pressure =      -23.87 kB  Pullay stress =        0.00 kB


 VOLUME and BASIS-vectors are now :
 -----------------------------------------------------------------------------
  energy-cutoff  :      400.00
  volume of cell :     1343.68
      direct lattice vectors                 reciprocal lattice vectors
     8.421641764  0.000000000  0.000000000     0.118741693 -0.068555548  0.000000000
     4.210820882  7.293355709  0.000000000     0.000000000  0.137111097  0.000000000
     0.000000000  0.000000000 21.876241706     0.000000000  0.000000000  0.045711691

  length of vectors
     8.421641764  8.421641764 21.876241706     0.137111097  0.137111097  0.045711691


 FORCES acting on ions
    electron-ion (+dipol)            ewald-force                    non-local-force                 convergence-correction
 -----------------------------------------------------------------------------------------------
   0.302E+00 0.231E+00 0.233E+04   -.353E+00 -.126E+00 -.233E+04   0.406E-01 -.573E-01 -.115E+01   -.467E-04 -.220E-03 -.187E-02
   0.566E-01 0.116E-01 0.233E+04   0.339E-03 0.197E-01 -.233E+04   -.371E-01 -.206E-01 -.110E+01   0.212E-04 -.202E-03 -.183E-02
   -.342E+00 -.261E+00 0.233E+04   0.352E+00 0.246E+00 -.233E+04   -.774E-02 0.169E-01 -.124E+01   0.256E-04 0.121E-04 -.180E-02
   0.577E-01 0.133E+00 0.233E+04   -.727E-01 -.148E+00 -.233E+04   0.847E-02 0.866E-03 -.126E+01   0.123E-04 -.165E-03 -.193E-02
   -.382E+00 -.163E+00 0.233E+04   0.372E+00 0.180E+00 -.233E+04   0.114E-01 -.158E-01 -.124E+01   0.210E-03 -.571E-04 -.191E-02
   0.302E+00 0.186E+00 0.233E+04   -.300E+00 -.185E+00 -.233E+04   -.258E-02 -.106E-02 -.127E+01   -.223E-03 -.943E-04 -.184E-02
   -.460E+00 -.258E+00 0.233E+04   0.459E+00 0.257E+00 -.233E+04   -.420E-02 -.266E-02 -.127E+01   0.195E-03 0.294E-03 -.191E-02
   0.371E+00 0.144E+00 0.233E+04   -.304E+00 -.241E+00 -.233E+04   -.306E-01 0.637E-01 -.115E+01   -.288E-04 0.142E-03 -.185E-02
   0.134E+00 -.332E-02 0.233E+04   -.153E+00 -.215E-02 -.233E+04   0.481E-02 0.664E-02 -.126E+01   -.166E-03 0.292E-03 -.179E-02
   0.203E+01 -.169E+01 0.828E+03   -.207E+01 0.155E+01 -.828E+03   0.372E-01 0.122E+00 -.330E+00   -.329E-04 -.312E-03 -.342E-02
   -.226E+01 -.142E+01 0.828E+03   0.215E+01 0.136E+01 -.827E+03   0.899E-01 0.521E-01 -.297E+00   0.134E-03 -.260E-03 -.347E-02
   0.187E-02 0.627E+00 0.825E+03   0.106E+00 -.719E+00 -.825E+03   -.756E-01 0.426E-01 -.229E+00   -.100E-03 -.123E-03 -.345E-02
   -.361E+01 -.909E+00 0.830E+03   0.365E+01 0.938E+00 -.830E+03   0.412E-01 -.263E-01 -.350E+00   0.120E-03 0.743E-04 -.343E-02
   0.621E+00 -.205E+00 0.825E+03   -.650E+00 0.343E+00 -.825E+03   0.163E-02 -.869E-01 -.231E+00   0.130E-03 0.626E-04 -.346E-02
   0.268E+01 0.168E+01 0.830E+03   -.273E+01 -.171E+01 -.830E+03   -.532E-02 -.366E-02 -.353E+00   -.250E-03 0.107E-03 -.326E-02
   0.318E+01 0.180E+01 0.823E+03   -.313E+01 -.177E+01 -.823E+03   -.643E-01 -.395E-01 -.284E+00   0.951E-04 0.133E-03 -.352E-02
   -.400E+00 0.248E+01 0.829E+03   0.256E+00 -.244E+01 -.828E+03   0.125E+00 -.293E-01 -.334E+00   0.366E-05 0.435E-04 -.339E-02
   -.269E+01 -.260E+01 0.830E+03   0.273E+01 0.262E+01 -.830E+03   -.152E-02 0.466E-01 -.352E+00   -.989E-04 0.275E-03 -.339E-02
   0.238E+01 0.654E+01 -.696E+03   -.274E+01 -.631E+01 0.696E+03   0.371E+00 -.228E+00 0.107E+00   -.146E-03 -.553E-04 -.155E-02
   -.358E+00 0.410E+01 -.689E+03   0.551E+00 -.401E+01 0.689E+03   -.192E+00 -.840E-01 0.438E+00   0.568E-04 -.299E-03 -.145E-02
   -.276E+01 -.184E+01 -.708E+03   0.278E+01 0.185E+01 0.707E+03   -.160E-01 -.708E-02 0.120E+01   0.879E-04 -.119E-03 -.156E-02
   -.694E+00 -.285E+00 -.678E+03   0.711E+00 0.293E+00 0.677E+03   -.185E-01 -.873E-02 0.634E+00   -.216E-03 0.198E-03 -.156E-02
   -.594E+01 -.799E+01 -.698E+03   0.599E+01 0.735E+01 0.698E+03   -.554E-01 0.631E+00 -.189E+00   0.186E-03 0.103E-03 -.158E-02
   0.685E+01 -.790E+00 -.696E+03   -.683E+01 0.374E+00 0.695E+03   -.728E-02 0.411E+00 0.129E+00   0.318E-04 0.131E-03 -.158E-02
   -.103E+02 -.108E+01 -.698E+03   0.977E+01 0.144E+01 0.698E+03   0.536E+00 -.367E+00 -.199E+00   -.851E-04 0.120E-03 -.165E-02
   0.534E+01 0.282E+01 -.669E+03   -.530E+01 -.280E+01 0.668E+03   -.425E-01 -.193E-01 0.763E+00   0.166E-03 -.460E-04 -.159E-02
   0.355E+01 -.240E+01 -.689E+03   -.338E+01 0.253E+01 0.688E+03   -.173E+00 -.130E+00 0.447E+00   -.841E-04 -.366E-04 -.155E-02
   -.750E+01 0.672E+01 -.222E+04   0.840E+01 -.723E+01 0.221E+04   -.895E+00 0.520E+00 0.129E+01   0.784E-04 0.607E-04 -.297E-03
   0.342E+02 0.196E+02 -.219E+04   -.359E+02 -.206E+02 0.219E+04   0.174E+01 0.101E+01 0.147E+01   0.152E-03 -.723E-04 -.198E-03
   -.395E+02 0.977E+02 -.213E+04   0.394E+02 -.999E+02 0.214E+04   0.125E+00 0.220E+01 -.935E+00   -.213E-03 0.373E-04 -.219E-03
   0.721E+01 -.355E+01 -.222E+04   -.731E+01 0.358E+01 0.222E+04   0.101E+00 -.196E-01 0.114E+01   -.220E-04 -.127E-03 -.175E-03
   0.659E+02 -.832E+02 -.214E+04   -.679E+02 0.842E+02 0.214E+04   0.191E+01 -.996E+00 -.918E+00   0.590E-04 -.235E-03 -.921E-04
   -.824E+02 -.476E+02 -.217E+04   0.821E+02 0.474E+02 0.218E+04   0.377E+00 0.232E+00 -.299E+01   -.397E-04 0.197E-04 -.240E-03
   -.248E+01 -.132E+01 -.222E+04   0.252E+01 0.134E+01 0.222E+04   -.398E-01 -.198E-01 0.107E+01   -.779E-04 0.830E-04 -.219E-03
   0.203E+01 -.954E+01 -.222E+04   -.203E+01 0.106E+02 0.221E+04   0.429E-02 -.106E+01 0.130E+01   0.228E-03 0.806E-04 -.298E-03
   0.797E+00 0.840E+01 -.222E+04   -.822E+00 -.849E+01 0.222E+04   0.239E-01 0.912E-01 0.114E+01   -.148E-03 0.193E-03 -.289E-03
   0.770E+02 0.453E+02 -.110E+04   -.805E+02 -.475E+02 0.110E+04   0.354E+01 0.218E+01 -.468E+01   -.749E-04 -.662E-04 0.324E-03
   -.816E+02 -.482E+02 -.108E+04   0.891E+02 0.526E+02 0.109E+04   -.744E+01 -.437E+01 -.586E+01   -.183E-04 -.263E-04 0.241E-03
   0.261E+02 0.152E+02 -.282E+03   -.288E+02 -.168E+02 0.287E+03   0.272E+01 0.159E+01 -.506E+01   -.107E-04 -.918E-05 0.106E-03
 -----------------------------------------------------------------------------------------------
   -.265E+01 -.161E+01 0.234E+02   0.711E-14 -.782E-13 -.432E-11   0.271E+01 0.163E+01 -.234E+02   -.898E-04 -.653E-04 -.630E-01
 
 
 POSITION                                       TOTAL-FORCE (eV/Angst)
 -----------------------------------------------------------------------------------
      0.00000      0.00000      7.50000        -0.012460      0.046511     -0.077577
      2.80721      0.00000      7.50000         0.018489      0.009932     -0.096708
      5.61443      0.00000      7.50000         0.001322      0.000714     -0.067054
      1.40361      2.43112      7.50000        -0.007875     -0.014462     -0.060412
      4.21082      2.43112      7.50000         0.000884      0.000960     -0.065996
      7.01803      2.43112      7.50000        -0.002313     -0.000707     -0.086881
      2.80721      4.86224      7.50000        -0.006603     -0.003352     -0.025806
      5.61443      4.86224      7.50000         0.034957     -0.033653     -0.078690
      8.42164      4.86224      7.50000        -0.016555      0.000881     -0.061243
      1.40361      0.81037      9.79208        -0.004197     -0.021008     -0.042649
      4.21082      0.81037      9.79208        -0.020414     -0.009508      0.099571
      7.01803      0.81037      9.79208         0.030613     -0.050346      0.149194
      2.80721      3.24149      9.79208         0.078713      0.001942      0.079272
      5.61443      3.24149      9.79208        -0.028675      0.050593      0.147898
      8.42164      3.24149      9.79208        -0.055614     -0.033027      0.102715
      4.21082      5.67261      9.79208        -0.013178     -0.008291      0.065668
      7.01803      5.67261      9.79208        -0.020478      0.009955     -0.047695
      9.82525      5.67261      9.79208         0.042443      0.066400      0.077655
      8.41411      1.63320     12.07744         0.006487      0.003788     -0.007757
      2.81783      1.62822     12.06730        -0.000495      0.001933      0.001270
      5.61934      1.62348     12.08412         0.003023      0.002858      0.001840
      9.83104      4.05468     12.04447        -0.003236     -0.000934     -0.000261
      4.21209      4.02935     12.08944        -0.005186     -0.001991     -0.002733
      7.02542      4.04036     12.07649         0.007571     -0.006226     -0.001206
     11.20991      6.49445     12.08940         0.003001     -0.004687     -0.000788
      5.61944      6.48541     12.03375        -0.003126      0.003120     -0.004939
      8.43415      6.48834     12.06666        -0.004976     -0.005314      0.001844
      4.26295      7.28216     14.35174        -0.001824      0.001796      0.002786
      6.98891      7.27481     14.36149        -0.002034      0.000625      0.001133
      9.85432      7.20551     14.47280         0.001073      0.002565      0.002955
      1.41925      2.44407     14.35063         0.004744      0.003178     -0.000685
      4.15052      2.49608     14.47515        -0.006594      0.010341     -0.003892
      7.13747      2.49754     14.48182        -0.008589     -0.006334      0.012809
      2.82345      4.86927     14.35247        -0.000514     -0.002900      0.006568
      5.63226      4.91096     14.35177        -0.000156     -0.004967      0.000832
      8.44256      4.86759     14.35095        -0.002998     -0.000818     -0.004109
      4.70135      1.08377     16.01250         0.000999     -0.002446     -0.010337
      5.81935      1.74568     15.62575         0.007888     -0.002552     -0.015697
      4.21051      0.79793     16.93790        -0.014116     -0.004567      0.009105
 -----------------------------------------------------------------------------------
    total drift:                                0.054606      0.022624     -0.056906


--------------------------------------------------------------------------------------------------------



  FREE ENERGIE OF THE ION-ELECTRON SYSTEM (eV)
  ---------------------------------------------------
  free  energy   TOTEN  =      -229.83059895 eV

  energy  without entropy=     -227.74667052  energy(sigma->0) =     -228.78863474
 


--------------------------------------------------------------------------------------------------------


    POTLOK:  cpu time    0.1270: real time    0.1476


--------------------------------------------------------------------------------------------------------


 stress matrix after NEB project (eV)
    -29.66528      0.59984     -0.22946
      0.59984    -30.41953     -0.11436
     -0.22946     -0.11436      0.03111
  FORCES: max atom, RMS     0.017752    0.006739
  FORCE total and by dimension    0.042083    0.015697
  Stress total and by dimension   42.499744   30.419527
     LOOP+:  cpu time 1876.3837: real time 1889.8668
    4ORBIT:  cpu time    0.0000: real time    0.0000

 total amount of memory used by VASP on root node   291928. kBytes
========================================================================

   base      :      30000. kBytes
   nonlr-proj:       4678. kBytes
   fftplans  :       4497. kBytes
   grid      :       7849. kBytes
   one-center:        155. kBytes
   wavefun   :     244749. kBytes
 
  
  
 General timing and accounting informations for this job:
 ========================================================
  
                  Total CPU time used (sec):     1904.518
                            User time (sec):     1850.878
                          System time (sec):       53.641
                         Elapsed time (sec):     1918.676
  
                   Maximum memory used (kb):      335968.
                   Average memory used (kb):           0.
  
                          Minor page faults:     25067712
                          Major page faults:            6
                 Voluntary context switches:         3524
