  39  39   0   0
  0.3445341E+02  0.8421642E-09  0.8421642E-09  0.2187624E-08  0.5000000E-15
  1.000000000000000E-004
  CAR 
 unknown system                          
      7.81303716    -11.97412187  301      1.30503885      1.00000000
    -11.974  0.0000E+00  0.0000E+00
    -11.908  0.0000E+00  0.0000E+00
    -11.842  0.0000E+00  0.0000E+00
    -11.776  0.9614E-02  0.6341E-03
    -11.710  0.8974E-02  0.1226E-02
    -11.644  0.1734E-01  0.2370E-02
    -11.578  0.3348E-01  0.4578E-02
    -11.512  0.6454E-01  0.8834E-02
    -11.446  0.1240E+00  0.1702E-01
    -11.381  0.2370E+00  0.3265E-01
    -11.315  0.4479E+00  0.6219E-01
    -11.249  0.8291E+00  0.1169E+00
    -11.183  0.1478E+01  0.2143E+00
    -11.117  0.2463E+01  0.3768E+00
    -11.051  0.3682E+01  0.6197E+00
    -10.985  0.4696E+01  0.9294E+00
    -10.919  0.4912E+01  0.1253E+01
    -10.853  0.4179E+01  0.1529E+01
    -10.787  0.2974E+01  0.1725E+01
    -10.721  0.1859E+01  0.1848E+01
    -10.655  0.1069E+01  0.1918E+01
    -10.589  0.5852E+00  0.1957E+01
    -10.523  0.3119E+00  0.1977E+01
    -10.457  0.1639E+00  0.1988E+01
    -10.391  0.8544E-01  0.1994E+01
    -10.325  0.4437E-01  0.1997E+01
    -10.259  0.2299E-01  0.1998E+01
    -10.193  0.1190E-01  0.1999E+01
    -10.127  0.0000E+00  0.2000E+01
    -10.061  0.0000E+00  0.2000E+01
     -9.995  0.0000E+00  0.2000E+01
     -9.929  0.0000E+00  0.2000E+01
     -9.863  0.0000E+00  0.2000E+01
     -9.798  0.0000E+00  0.2000E+01
     -9.732  0.0000E+00  0.2000E+01
     -9.666  0.0000E+00  0.2000E+01
     -9.600  0.0000E+00  0.2000E+01
     -9.534  0.0000E+00  0.2000E+01
     -9.468  0.0000E+00  0.2000E+01
     -9.402  0.0000E+00  0.2000E+01
     -9.336  0.0000E+00  0.2000E+01
     -9.270  0.0000E+00  0.2000E+01
     -9.204  0.0000E+00  0.2000E+01
     -9.138  0.0000E+00  0.2000E+01
     -9.072  0.0000E+00  0.2000E+01
     -9.006  0.0000E+00  0.2000E+01
     -8.940  0.0000E+00  0.2000E+01
     -8.874  0.0000E+00  0.2000E+01
     -8.808  0.0000E+00  0.2000E+01
     -8.742  0.4608E-03  0.2000E+01
     -8.676  0.9598E-03  0.2000E+01
     -8.610  0.2057E-02  0.2000E+01
     -8.544  0.3668E-02  0.2000E+01
     -8.478  0.7255E-02  0.2001E+01
     -8.412  0.1338E-01  0.2002E+01
     -8.346  0.2571E-01  0.2004E+01
     -8.281  0.5066E-01  0.2007E+01
     -8.215  0.9408E-01  0.2013E+01
     -8.149  0.1743E+00  0.2025E+01
     -8.083  0.3107E+00  0.2045E+01
     -8.017  0.5222E+00  0.2080E+01
     -7.951  0.8058E+00  0.2133E+01
     -7.885  0.1126E+01  0.2207E+01
     -7.819  0.1425E+01  0.2301E+01
     -7.753  0.1658E+01  0.2410E+01
     -7.687  0.1804E+01  0.2529E+01
     -7.621  0.1887E+01  0.2654E+01
     -7.555  0.1950E+01  0.2782E+01
     -7.489  0.2027E+01  0.2916E+01
     -7.423  0.2098E+01  0.3054E+01
     -7.357  0.2115E+01  0.3194E+01
     -7.291  0.2089E+01  0.3332E+01
     -7.225  0.2067E+01  0.3468E+01
     -7.159  0.2091E+01  0.3606E+01
     -7.093  0.2172E+01  0.3749E+01
     -7.027  0.2292E+01  0.3900E+01
     -6.961  0.2394E+01  0.4059E+01
     -6.895  0.2449E+01  0.4220E+01
     -6.829  0.2498E+01  0.4385E+01
     -6.764  0.2608E+01  0.4557E+01
     -6.698  0.2834E+01  0.4744E+01
     -6.632  0.3207E+01  0.4956E+01
     -6.566  0.3692E+01  0.5199E+01
     -6.500  0.4172E+01  0.5474E+01
     -6.434  0.4515E+01  0.5772E+01
     -6.368  0.4671E+01  0.6080E+01
     -6.302  0.4725E+01  0.6392E+01
     -6.236  0.4784E+01  0.6708E+01
     -6.170  0.4884E+01  0.7030E+01
     -6.104  0.5012E+01  0.7361E+01
     -6.038  0.5209E+01  0.7704E+01
     -5.972  0.5542E+01  0.8070E+01
     -5.906  0.5977E+01  0.8464E+01
     -5.840  0.6424E+01  0.8888E+01
     -5.774  0.6863E+01  0.9341E+01
     -5.708  0.7397E+01  0.9829E+01
     -5.642  0.8184E+01  0.1037E+02
     -5.576  0.9393E+01  0.1099E+02
     -5.510  0.1118E+02  0.1173E+02
     -5.444  0.1363E+02  0.1262E+02
     -5.378  0.1662E+02  0.1372E+02
     -5.312  0.1971E+02  0.1502E+02
     -5.246  0.2248E+02  0.1650E+02
     -5.181  0.2480E+02  0.1814E+02
     -5.115  0.2671E+02  0.1990E+02
     -5.049  0.2835E+02  0.2177E+02
     -4.983  0.2984E+02  0.2374E+02
     -4.917  0.3113E+02  0.2580E+02
     -4.851  0.3209E+02  0.2791E+02
     -4.785  0.3272E+02  0.3007E+02
     -4.719  0.3338E+02  0.3227E+02
     -4.653  0.3450E+02  0.3455E+02
     -4.587  0.3623E+02  0.3694E+02
     -4.521  0.3853E+02  0.3948E+02
     -4.455  0.4127E+02  0.4220E+02
     -4.389  0.4423E+02  0.4512E+02
     -4.323  0.4693E+02  0.4822E+02
     -4.257  0.4888E+02  0.5144E+02
     -4.191  0.4976E+02  0.5473E+02
     -4.125  0.4970E+02  0.5800E+02
     -4.059  0.4906E+02  0.6124E+02
     -3.993  0.4808E+02  0.6441E+02
     -3.927  0.4670E+02  0.6750E+02
     -3.861  0.4470E+02  0.7044E+02
     -3.795  0.4226E+02  0.7323E+02
     -3.729  0.3986E+02  0.7586E+02
     -3.664  0.3801E+02  0.7837E+02
     -3.598  0.3711E+02  0.8082E+02
     -3.532  0.3749E+02  0.8330E+02
     -3.466  0.3925E+02  0.8589E+02
     -3.400  0.4188E+02  0.8865E+02
     -3.334  0.4440E+02  0.9158E+02
     -3.268  0.4601E+02  0.9462E+02
     -3.202  0.4668E+02  0.9770E+02
     -3.136  0.4706E+02  0.1008E+03
     -3.070  0.4768E+02  0.1039E+03
     -3.004  0.4839E+02  0.1071E+03
     -2.938  0.4865E+02  0.1104E+03
     -2.872  0.4814E+02  0.1135E+03
     -2.806  0.4711E+02  0.1166E+03
     -2.740  0.4616E+02  0.1197E+03
     -2.674  0.4598E+02  0.1227E+03
     -2.608  0.4708E+02  0.1258E+03
     -2.542  0.4941E+02  0.1291E+03
     -2.476  0.5247E+02  0.1325E+03
     -2.410  0.5577E+02  0.1362E+03
     -2.344  0.5911E+02  0.1401E+03
     -2.278  0.6231E+02  0.1442E+03
     -2.212  0.6495E+02  0.1485E+03
     -2.146  0.6689E+02  0.1529E+03
     -2.081  0.6859E+02  0.1575E+03
     -2.015  0.7057E+02  0.1621E+03
     -1.949  0.7282E+02  0.1669E+03
     -1.883  0.7484E+02  0.1719E+03
     -1.817  0.7624E+02  0.1769E+03
     -1.751  0.7710E+02  0.1820E+03
     -1.685  0.7761E+02  0.1871E+03
     -1.619  0.7778E+02  0.1922E+03
     -1.553  0.7737E+02  0.1973E+03
     -1.487  0.7582E+02  0.2023E+03
     -1.421  0.7262E+02  0.2071E+03
     -1.355  0.6785E+02  0.2116E+03
     -1.289  0.6228E+02  0.2157E+03
     -1.223  0.5691E+02  0.2195E+03
     -1.157  0.5250E+02  0.2229E+03
     -1.091  0.4949E+02  0.2262E+03
     -1.025  0.4817E+02  0.2294E+03
     -0.959  0.4880E+02  0.2326E+03
     -0.893  0.5133E+02  0.2360E+03
     -0.827  0.5508E+02  0.2396E+03
     -0.761  0.5857E+02  0.2435E+03
     -0.695  0.6024E+02  0.2475E+03
     -0.629  0.5947E+02  0.2514E+03
     -0.564  0.5701E+02  0.2552E+03
     -0.498  0.5425E+02  0.2587E+03
     -0.432  0.5221E+02  0.2622E+03
     -0.366  0.5125E+02  0.2656E+03
     -0.300  0.5124E+02  0.2689E+03
     -0.234  0.5201E+02  0.2724E+03
     -0.168  0.5338E+02  0.2759E+03
     -0.102  0.5532E+02  0.2795E+03
     -0.036  0.5773E+02  0.2834E+03
      0.030  0.6036E+02  0.2873E+03
      0.096  0.6274E+02  0.2915E+03
      0.162  0.6432E+02  0.2957E+03
      0.228  0.6454E+02  0.3000E+03
      0.294  0.6315E+02  0.3042E+03
      0.360  0.6050E+02  0.3081E+03
      0.426  0.5744E+02  0.3119E+03
      0.492  0.5494E+02  0.3156E+03
      0.558  0.5366E+02  0.3191E+03
      0.624  0.5359E+02  0.3226E+03
      0.690  0.5422E+02  0.3262E+03
      0.756  0.5510E+02  0.3298E+03
      0.822  0.5636E+02  0.3336E+03
      0.888  0.5856E+02  0.3374E+03
      0.953  0.6196E+02  0.3415E+03
      1.019  0.6602E+02  0.3459E+03
      1.085  0.6965E+02  0.3505E+03
      1.151  0.7180E+02  0.3552E+03
      1.217  0.7184E+02  0.3600E+03
      1.283  0.6958E+02  0.3645E+03
      1.349  0.6527E+02  0.3688E+03
      1.415  0.5959E+02  0.3728E+03
      1.481  0.5337E+02  0.3763E+03
      1.547  0.4697E+02  0.3794E+03
      1.613  0.4030E+02  0.3821E+03
      1.679  0.3360E+02  0.3843E+03
      1.745  0.2763E+02  0.3861E+03
      1.811  0.2301E+02  0.3876E+03
      1.877  0.1971E+02  0.3889E+03
      1.943  0.1736E+02  0.3901E+03
      2.009  0.1564E+02  0.3911E+03
      2.075  0.1436E+02  0.3921E+03
      2.141  0.1338E+02  0.3929E+03
      2.207  0.1269E+02  0.3938E+03
      2.273  0.1229E+02  0.3946E+03
      2.339  0.1210E+02  0.3954E+03
      2.405  0.1194E+02  0.3962E+03
      2.471  0.1168E+02  0.3970E+03
      2.536  0.1135E+02  0.3977E+03
      2.602  0.1114E+02  0.3984E+03
      2.668  0.1120E+02  0.3992E+03
      2.734  0.1146E+02  0.3999E+03
      2.800  0.1176E+02  0.4007E+03
      2.866  0.1202E+02  0.4015E+03
      2.932  0.1229E+02  0.4023E+03
      2.998  0.1259E+02  0.4031E+03
      3.064  0.1287E+02  0.4040E+03
      3.130  0.1301E+02  0.4049E+03
      3.196  0.1282E+02  0.4057E+03
      3.262  0.1224E+02  0.4065E+03
      3.328  0.1146E+02  0.4073E+03
      3.394  0.1076E+02  0.4080E+03
      3.460  0.1036E+02  0.4087E+03
      3.526  0.1037E+02  0.4093E+03
      3.592  0.1079E+02  0.4101E+03
      3.658  0.1149E+02  0.4108E+03
      3.724  0.1210E+02  0.4116E+03
      3.790  0.1232E+02  0.4124E+03
      3.856  0.1209E+02  0.4132E+03
      3.922  0.1167E+02  0.4140E+03
      3.988  0.1141E+02  0.4147E+03
      4.053  0.1151E+02  0.4155E+03
      4.119  0.1180E+02  0.4163E+03
      4.185  0.1196E+02  0.4171E+03
      4.251  0.1181E+02  0.4178E+03
      4.317  0.1142E+02  0.4186E+03
      4.383  0.1107E+02  0.4193E+03
      4.449  0.1096E+02  0.4201E+03
      4.515  0.1114E+02  0.4208E+03
      4.581  0.1147E+02  0.4215E+03
      4.647  0.1170E+02  0.4223E+03
      4.713  0.1165E+02  0.4231E+03
      4.779  0.1129E+02  0.4238E+03
      4.845  0.1075E+02  0.4245E+03
      4.911  0.1023E+02  0.4252E+03
      4.977  0.9898E+01  0.4259E+03
      5.043  0.9831E+01  0.4265E+03
      5.109  0.9919E+01  0.4272E+03
      5.175  0.1003E+02  0.4278E+03
      5.241  0.1016E+02  0.4285E+03
      5.307  0.1037E+02  0.4292E+03
      5.373  0.1063E+02  0.4299E+03
      5.439  0.1087E+02  0.4306E+03
      5.505  0.1101E+02  0.4313E+03
      5.570  0.1102E+02  0.4321E+03
      5.636  0.1081E+02  0.4328E+03
      5.702  0.1032E+02  0.4335E+03
      5.768  0.9601E+01  0.4341E+03
      5.834  0.8813E+01  0.4347E+03
      5.900  0.8054E+01  0.4352E+03
      5.966  0.7360E+01  0.4357E+03
      6.032  0.6773E+01  0.4361E+03
      6.098  0.6326E+01  0.4366E+03
      6.164  0.5975E+01  0.4369E+03
      6.230  0.5627E+01  0.4373E+03
      6.296  0.5286E+01  0.4377E+03
      6.362  0.5048E+01  0.4380E+03
      6.428  0.4926E+01  0.4383E+03
      6.494  0.4787E+01  0.4386E+03
      6.560  0.4488E+01  0.4389E+03
      6.626  0.4028E+01  0.4392E+03
      6.692  0.3469E+01  0.4394E+03
      6.758  0.2833E+01  0.4396E+03
      6.824  0.2143E+01  0.4398E+03
      6.890  0.1478E+01  0.4399E+03
      6.956  0.9300E+00  0.4399E+03
      7.022  0.5429E+00  0.4400E+03
      7.088  0.3009E+00  0.4400E+03
      7.153  0.1618E+00  0.4400E+03
      7.219  0.8416E-01  0.4400E+03
      7.285  0.4208E-01  0.4400E+03
      7.351  0.2050E-01  0.4400E+03
      7.417  0.1021E-01  0.4400E+03
      7.483  0.4388E-02  0.4400E+03
      7.549  0.1295E-02  0.4400E+03
      7.615  0.0000E+00  0.4400E+03
      7.681  0.0000E+00  0.4400E+03
      7.747  0.0000E+00  0.4400E+03
      7.813  0.0000E+00  0.4400E+03
