 running on   20 total cores
 distrk:  each k-point on   20 cores,    1 groups
 distr:  one band on    4 cores,    5 groups
 using from now: INCAR     
 vasp.5.4.1 24Jun15 (build Oct 10 2016 12:42:00) complex                        
  
 POSCAR found :  3 types and      39 ions
 scaLAPACK will be used
 LDA part: xc-table for Pade appr. of Perdew
 POSCAR found :  3 types and      39 ions
 POSCAR, INCAR and KPOINTS ok, starting setup
 WARNING: small aliasing (wrap around) errors must be expected
 FFT: planning ...
 WAVECAR not read
 entering main loop
       N       E                     dE             d eps       ncg     rms          rms(c)
DAV:   1     0.218560305866E+04    0.21856E+04   -0.14488E+05 23840   0.118E+03
DAV:   2    -0.792598801378E+02   -0.22649E+04   -0.21009E+04 27900   0.269E+02
DAV:   3    -0.235421578210E+03   -0.15616E+03   -0.14087E+03 28650   0.638E+01
DAV:   4    -0.242258614429E+03   -0.68370E+01   -0.65943E+01 30200   0.128E+01    0.630E+01
RMM:   5    -0.231305376850E+03    0.10953E+02   -0.52039E+01 25150   0.146E+01    0.432E+01
RMM:   6    -0.270727856487E+03   -0.39422E+02   -0.73055E+01 24962   0.133E+01    0.555E+01
RMM:   7    -0.227653359313E+03    0.43074E+02   -0.26440E+01 24392   0.880E+00    0.137E+01
RMM:   8    -0.241302804985E+03   -0.13649E+02   -0.15941E+01 25132   0.618E+00    0.352E+01
RMM:   9    -0.230874370055E+03    0.10428E+02   -0.49918E+00 25376   0.340E+00    0.224E+01
RMM:  10    -0.225957079049E+03    0.49173E+01   -0.27806E+00 24554   0.278E+00    0.686E+00
RMM:  11    -0.225701708065E+03    0.25537E+00   -0.52014E-01 25373   0.116E+00    0.439E+00
RMM:  12    -0.225624567307E+03    0.77141E-01   -0.14623E-01 25887   0.604E-01    0.294E+00
RMM:  13    -0.225601903730E+03    0.22664E-01   -0.77960E-02 25077   0.458E-01    0.201E+00
RMM:  14    -0.225580274488E+03    0.21629E-01   -0.50578E-02 25094   0.372E-01    0.104E+00
RMM:  15    -0.225571903496E+03    0.83710E-02   -0.11412E-02 25187   0.180E-01    0.567E-01
RMM:  16    -0.225569625643E+03    0.22779E-02   -0.37379E-03 25319   0.995E-02    0.302E-01
RMM:  17    -0.225569711319E+03   -0.85676E-04   -0.19073E-03 25510   0.695E-02    0.314E-01
RMM:  18    -0.225568950288E+03    0.76103E-03   -0.84815E-04 25230   0.498E-02    0.152E-01
RMM:  19    -0.225568809859E+03    0.14043E-03   -0.24148E-04 25576   0.253E-02    0.963E-02
RMM:  20    -0.225568756959E+03    0.52901E-04   -0.18080E-04 24737   0.202E-02    0.389E-02
RMM:  21    -0.225568792024E+03   -0.35065E-04   -0.50050E-05 25789   0.107E-02    0.296E-02
RMM:  22    -0.225568923033E+03   -0.13101E-03   -0.40052E-05 24593   0.931E-03    0.330E-02
RMM:  23    -0.225569070721E+03   -0.14769E-03   -0.53581E-05 24581   0.106E-02    0.314E-02
RMM:  24    -0.225569274312E+03   -0.20359E-03   -0.54520E-05 24585   0.982E-03    0.262E-02
RMM:  25    -0.225569355311E+03   -0.80999E-04   -0.11784E-05 24148   0.483E-03    0.218E-02
RMM:  26    -0.225569615487E+03   -0.26018E-03   -0.11197E-05 23279   0.486E-03    0.932E-03
RMM:  27    -0.225569764619E+03   -0.14913E-03   -0.70816E-06 20142   0.365E-03    0.103E-02
RMM:  28    -0.225569864535E+03   -0.99916E-04   -0.42069E-06 17725   0.264E-03    0.876E-03
RMM:  29    -0.225569909529E+03   -0.44994E-04   -0.13644E-06 15425   0.165E-03    0.700E-03
RMM:  30    -0.225569991387E+03   -0.81858E-04   -0.19346E-06 15651   0.176E-03    0.519E-03
RMM:  31    -0.225570057033E+03   -0.65646E-04   -0.21525E-06 16047   0.173E-03    0.173E-03
RMM:  32    -0.225570085539E+03   -0.28506E-04   -0.85708E-07 13402   0.105E-03    0.158E-03
RMM:  33    -0.225570101137E+03   -0.15598E-04   -0.56299E-07 10960   0.850E-04    0.908E-04
RMM:  34    -0.225570107541E+03   -0.64042E-05   -0.32081E-07 10437   0.684E-04    0.786E-04
RMM:  35    -0.225570112170E+03   -0.46291E-05   -0.25708E-07  9387   0.617E-04    0.412E-04
RMM:  36    -0.225570113805E+03   -0.16350E-05   -0.10577E-07  6126   0.486E-04    0.390E-04
RMM:  37    -0.225570114977E+03   -0.11719E-05   -0.74879E-08  5659   0.491E-04    0.263E-04
RMM:  38    -0.225570115588E+03   -0.61071E-06   -0.49558E-08  5313   0.481E-04
   1 F= -.22557012E+03 E0= -.22451271E+03  d E =-.211481E+01
