<?xml version="1.0" encoding="ISO-8859-1"?>
<modeling>
 <generator>
  <i name="program" type="string">vasp </i>
  <i name="version" type="string">5.4.1  </i>
  <i name="subversion" type="string">24Jun15 (build Oct 10 2016 12:42:00) complex                          parallel </i>
  <i name="platform" type="string">IFC91_ompi </i>
  <i name="date" type="string">2018 05 25 </i>
  <i name="time" type="string">11:54:03 </i>
 </generator>
 <incar>
  <i type="string" name="PREC">normal</i>
  <i type="string" name="ALGO"> fast</i>
  <i type="int" name="ISPIN">     1</i>
  <i type="int" name="NELMDL">    -4</i>
  <i type="int" name="NELMIN">     4</i>
  <i name="EDIFF">      0.00000100</i>
  <i name="ENCUT">    400.00000000</i>
  <i type="string" name="LREAL"> auto</i>
  <i type="int" name="ISMEAR">    -1</i>
  <i name="SIGMA">      0.10000000</i>
  <i type="logical" name="LWAVE"> F  </i>
  <i type="logical" name="LCHARG"> F  </i>
  <v type="int" name="KPOINT_BSE">    -1     0     0     0</v>
  <i type="string" name="GGA"> PE</i>
 </incar>
 <kpoints>
  <generation param="Monkhorst-Pack">
   <v type="int" name="divisions">       6        6        1 </v>
   <v name="usershift">      0.00000000       0.00000000       0.00000000 </v>
   <v name="genvec1">      0.16666667      -0.00000000       0.00000000 </v>
   <v name="genvec2">      0.00000000       0.16666667       0.00000000 </v>
   <v name="genvec3">      0.00000000       0.00000000       1.00000000 </v>
   <v name="shift">      0.50000000       0.50000000       0.00000000 </v>
  </generation>
  <varray name="kpointlist" >
   <v>       0.08333333       0.08333333       0.00000000 </v>
   <v>       0.00000000       0.08333333       0.00000000 </v>
   <v>      -0.08333333       0.00000000       0.00000000 </v>
   <v>       0.25000000       0.08333333       0.00000000 </v>
   <v>       0.16666667       0.25000000       0.00000000 </v>
   <v>      -0.08333333       0.16666667       0.00000000 </v>
   <v>       0.16666667      -0.08333333       0.00000000 </v>
   <v>      -0.08333333      -0.25000000       0.00000000 </v>
   <v>      -0.25000000      -0.16666667       0.00000000 </v>
   <v>       0.41666667       0.08333333       0.00000000 </v>
   <v>       0.33333333       0.41666667       0.00000000 </v>
   <v>      -0.08333333       0.33333333       0.00000000 </v>
   <v>       0.33333333      -0.08333333       0.00000000 </v>
   <v>      -0.08333333      -0.41666667       0.00000000 </v>
   <v>      -0.41666667      -0.33333333       0.00000000 </v>
   <v>      -0.41666667       0.08333333       0.00000000 </v>
   <v>       0.50000000      -0.41666667       0.00000000 </v>
   <v>      -0.08333333       0.50000000       0.00000000 </v>
   <v>       0.50000000      -0.08333333       0.00000000 </v>
   <v>      -0.08333333       0.41666667       0.00000000 </v>
   <v>       0.41666667       0.50000000       0.00000000 </v>
   <v>      -0.25000000       0.08333333       0.00000000 </v>
   <v>      -0.33333333      -0.25000000       0.00000000 </v>
   <v>      -0.08333333      -0.33333333       0.00000000 </v>
   <v>      -0.33333333      -0.08333333       0.00000000 </v>
   <v>      -0.08333333       0.25000000       0.00000000 </v>
   <v>       0.25000000       0.33333333       0.00000000 </v>
   <v>      -0.08333333       0.08333333       0.00000000 </v>
   <v>      -0.16666667      -0.08333333       0.00000000 </v>
   <v>      -0.08333333      -0.16666667       0.00000000 </v>
   <v>       0.25000000       0.25000000       0.00000000 </v>
   <v>       0.00000000       0.25000000       0.00000000 </v>
   <v>      -0.25000000       0.00000000       0.00000000 </v>
   <v>       0.41666667       0.25000000       0.00000000 </v>
   <v>       0.16666667       0.41666667       0.00000000 </v>
   <v>      -0.25000000       0.16666667       0.00000000 </v>
   <v>       0.16666667      -0.25000000       0.00000000 </v>
   <v>      -0.25000000      -0.41666667       0.00000000 </v>
   <v>      -0.41666667      -0.16666667       0.00000000 </v>
   <v>      -0.41666667       0.25000000       0.00000000 </v>
   <v>       0.33333333      -0.41666667       0.00000000 </v>
   <v>      -0.25000000       0.33333333       0.00000000 </v>
   <v>       0.33333333      -0.25000000       0.00000000 </v>
   <v>      -0.25000000       0.41666667       0.00000000 </v>
   <v>       0.41666667      -0.33333333       0.00000000 </v>
   <v>      -0.25000000       0.25000000       0.00000000 </v>
   <v>       0.50000000      -0.25000000       0.00000000 </v>
   <v>      -0.25000000       0.50000000       0.00000000 </v>
   <v>       0.41666667       0.41666667       0.00000000 </v>
   <v>       0.00000000       0.41666667       0.00000000 </v>
   <v>      -0.41666667      -0.00000000       0.00000000 </v>
   <v>      -0.41666667       0.41666667       0.00000000 </v>
   <v>       0.16666667      -0.41666667       0.00000000 </v>
   <v>      -0.41666667       0.16666667       0.00000000 </v>
  </varray>
  <varray name="weights" >
   <v>       0.01851852 </v>
   <v>       0.01851852 </v>
   <v>       0.01851852 </v>
   <v>       0.01851852 </v>
   <v>       0.01851852 </v>
   <v>       0.01851852 </v>
   <v>       0.01851852 </v>
   <v>       0.01851852 </v>
   <v>       0.01851852 </v>
   <v>       0.01851852 </v>
   <v>       0.01851852 </v>
   <v>       0.01851852 </v>
   <v>       0.01851852 </v>
   <v>       0.01851852 </v>
   <v>       0.01851852 </v>
   <v>       0.01851852 </v>
   <v>       0.01851852 </v>
   <v>       0.01851852 </v>
   <v>       0.01851852 </v>
   <v>       0.01851852 </v>
   <v>       0.01851852 </v>
   <v>       0.01851852 </v>
   <v>       0.01851852 </v>
   <v>       0.01851852 </v>
   <v>       0.01851852 </v>
   <v>       0.01851852 </v>
   <v>       0.01851852 </v>
   <v>       0.01851852 </v>
   <v>       0.01851852 </v>
   <v>       0.01851852 </v>
   <v>       0.01851852 </v>
   <v>       0.01851852 </v>
   <v>       0.01851852 </v>
   <v>       0.01851852 </v>
   <v>       0.01851852 </v>
   <v>       0.01851852 </v>
   <v>       0.01851852 </v>
   <v>       0.01851852 </v>
   <v>       0.01851852 </v>
   <v>       0.01851852 </v>
   <v>       0.01851852 </v>
   <v>       0.01851852 </v>
   <v>       0.01851852 </v>
   <v>       0.01851852 </v>
   <v>       0.01851852 </v>
   <v>       0.01851852 </v>
   <v>       0.01851852 </v>
   <v>       0.01851852 </v>
   <v>       0.01851852 </v>
   <v>       0.01851852 </v>
   <v>       0.01851852 </v>
   <v>       0.01851852 </v>
   <v>       0.01851852 </v>
   <v>       0.01851852 </v>
  </varray>
 </kpoints>
 <parameters>
  <separator name="general" >
   <i type="string" name="SYSTEM">unknown system</i>
   <i type="logical" name="LCOMPAT"> F  </i>
  </separator>
  <separator name="electronic" >
   <i type="string" name="PREC">normal</i>
   <i name="ENMAX">    400.00000000</i>
   <i name="ENAUG">    644.87300000</i>
   <i name="EDIFF">      0.00000100</i>
   <i type="int" name="IALGO">    68</i>
   <i type="int" name="IWAVPR">    10</i>
   <i type="int" name="NBANDS">   220</i>
   <i name="NELECT">    366.00000000</i>
   <i type="int" name="TURBO">     0</i>
   <i type="int" name="IRESTART">     0</i>
   <i type="int" name="NREBOOT">     0</i>
   <i type="int" name="NMIN">     0</i>
   <i name="EREF">      0.00000000</i>
   <separator name="electronic smearing" >
    <i type="int" name="ISMEAR">    -1</i>
    <i name="SIGMA">      0.10000000</i>
    <i name="KSPACING">      0.50000000</i>
    <i type="logical" name="KGAMMA"> T  </i>
   </separator>
   <separator name="electronic projectors" >
    <i type="logical" name="LREAL"> T  </i>
    <v name="ROPT">     -0.00050000     -0.00050000     -0.00050000</v>
    <i type="int" name="LMAXPAW">  -100</i>
    <i type="int" name="LMAXMIX">     2</i>
    <i type="logical" name="NLSPLINE"> F  </i>
   </separator>
   <separator name="electronic startup" >
    <i type="int" name="ISTART">     0</i>
    <i type="int" name="ICHARG">     2</i>
    <i type="int" name="INIWAV">     1</i>
   </separator>
   <separator name="electronic spin" >
    <i type="int" name="ISPIN">     1</i>
    <i type="logical" name="LNONCOLLINEAR"> F  </i>
    <v name="MAGMOM">      1.00000000      1.00000000      1.00000000      1.00000000      1.00000000      1.00000000      1.00000000      1.00000000      1.00000000      1.00000000      1.00000000      1.00000000      1.00000000      1.00000000      1.00000000      1.00000000      1.00000000      1.00000000      1.00000000      1.00000000
      1.00000000      1.00000000      1.00000000      1.00000000      1.00000000      1.00000000      1.00000000      1.00000000      1.00000000      1.00000000      1.00000000      1.00000000      1.00000000      1.00000000      1.00000000      1.00000000      1.00000000      1.00000000      1.00000000</v>
    <i name="NUPDOWN">     -1.00000000</i>
    <i type="logical" name="LSORBIT"> F  </i>
    <v name="SAXIS">      0.00000000      0.00000000      1.00000000</v>
    <i type="logical" name="LSPIRAL"> F  </i>
    <v name="QSPIRAL">      0.00000000      0.00000000      0.00000000</v>
    <i type="logical" name="LZEROZ"> F  </i>
   </separator>
   <separator name="electronic exchange-correlation" >
    <i type="logical" name="LASPH"> F  </i>
    <i type="logical" name="LMETAGGA"> F  </i>
   </separator>
   <separator name="electronic convergence" >
    <i type="int" name="NELM">    60</i>
    <i type="int" name="NELMDL">    -4</i>
    <i type="int" name="NELMIN">     4</i>
    <i name="ENINI">    400.00000000</i>
    <separator name="electronic convergence detail" >
     <i type="logical" name="LDIAG"> T  </i>
     <i type="logical" name="LSUBROT"> F  </i>
     <i name="WEIMIN">      0.00000000</i>
     <i name="EBREAK">      0.00000000</i>
     <i name="DEPER">      0.30000000</i>
     <i type="int" name="NRMM">     4</i>
     <i name="TIME">      0.40000000</i>
    </separator>
   </separator>
   <separator name="electronic mixer" >
    <i name="AMIX">      0.40000000</i>
    <i name="BMIX">      1.00000000</i>
    <i name="AMIN">      0.10000000</i>
    <i name="AMIX_MAG">      1.60000000</i>
    <i name="BMIX_MAG">      1.00000000</i>
    <separator name="electronic mixer details" >
     <i type="int" name="IMIX">     4</i>
     <i type="logical" name="MIXFIRST"> F  </i>
     <i type="int" name="MAXMIX">   -45</i>
     <i name="WC">    100.00000000</i>
     <i type="int" name="INIMIX">     1</i>
     <i type="int" name="MIXPRE">     1</i>
     <i type="int" name="MREMOVE">     5</i>
    </separator>
   </separator>
   <separator name="electronic dipolcorrection" >
    <i type="logical" name="LDIPOL"> F  </i>
    <i type="logical" name="LMONO"> F  </i>
    <i type="int" name="IDIPOL">     0</i>
    <i name="EPSILON">      1.00000000</i>
    <v name="DIPOL">   -100.00000000   -100.00000000   -100.00000000</v>
    <i name="EFIELD">      0.00000000</i>
   </separator>
  </separator>
  <separator name="grids" >
   <i type="int" name="NGX">    42</i>
   <i type="int" name="NGY">    42</i>
   <i type="int" name="NGZ">   108</i>
   <i type="int" name="NGXF">    84</i>
   <i type="int" name="NGYF">    84</i>
   <i type="int" name="NGZF">   216</i>
   <i type="logical" name="ADDGRID"> F  </i>
  </separator>
  <separator name="ionic" >
   <i type="int" name="NSW">     0</i>
   <i type="int" name="IBRION">    -1</i>
   <i type="int" name="ISIF">     2</i>
   <i name="PSTRESS">      0.00000000</i>
   <i name="EDIFFG">      0.00001000</i>
   <i type="int" name="NFREE">     0</i>
   <i name="POTIM">      0.50000000</i>
   <i name="SMASS">     -3.00000000</i>
   <i name="SCALEE">      1.00000000</i>
  </separator>
  <separator name="ionic md" >
   <i name="TEBEG">      0.00010000</i>
   <i name="TEEND">      0.00010000</i>
   <i type="int" name="NBLOCK">     1</i>
   <i type="int" name="KBLOCK">     1</i>
   <i type="int" name="NPACO">   256</i>
   <i name="APACO">     16.00000000</i>
  </separator>
  <separator name="symmetry" >
   <i type="int" name="ISYM">     2</i>
   <i name="SYMPREC">      0.00001000</i>
  </separator>
  <separator name="dos" >
   <i type="logical" name="LORBIT"> F  </i>
   <v name="RWIGS">     -1.00000000     -1.00000000     -1.00000000</v>
   <i type="int" name="NEDOS">   301</i>
   <i name="EMIN">     10.00000000</i>
   <i name="EMAX">    -10.00000000</i>
   <i name="EFERMI">      0.00000000</i>
  </separator>
  <separator name="writing" >
   <i type="int" name="NWRITE">     2</i>
   <i type="logical" name="LWAVE"> F  </i>
   <i type="logical" name="LCHARG"> F  </i>
   <i type="logical" name="LPARD"> F  </i>
   <i type="logical" name="LVTOT"> F  </i>
   <i type="logical" name="LVHAR"> F  </i>
   <i type="logical" name="LELF"> F  </i>
   <i type="logical" name="LOPTICS"> F  </i>
   <v name="STM">      0.00000000      0.00000000      0.00000000      0.00000000      0.00000000      0.00000000      0.00000000</v>
  </separator>
  <separator name="performance" >
   <i type="int" name="NPAR">     5</i>
   <i type="int" name="NSIM">     4</i>
   <i type="int" name="NBLK">    -1</i>
   <i type="logical" name="LPLANE"> T  </i>
   <i type="logical" name="LSCALAPACK"> T  </i>
   <i type="logical" name="LSCAAWARE"> F  </i>
   <i type="logical" name="LSCALU"> F  </i>
   <i type="logical" name="LASYNC"> F  </i>
   <i type="logical" name="LORBITALREAL"> F  </i>
  </separator>
  <separator name="miscellaneous" >
   <i type="int" name="IDIOT">     3</i>
   <i type="logical" name="LMUSIC"> F  </i>
   <v name="POMASS">    195.08000000     12.01100000      1.00000000</v>
   <v name="DARWINR">      0.00000000      0.00000000      0.00000000</v>
   <v name="DARWINV">      1.00000000      1.00000000      1.00000000</v>
   <i type="logical" name="LCORR"> T  </i>
  </separator>
  <i type="logical" name="GGA_COMPAT"> T  </i>
  <i type="logical" name="LBERRY"> F  </i>
  <i type="int" name="ICORELEVEL">     0</i>
  <i type="logical" name="LDAU"> F  </i>
  <i type="int" name="I_CONSTRAINED_M">     0</i>
  <separator name="electronic exchange-correlation" >
   <i type="string" name="GGA">PE</i>
   <i type="int" name="VOSKOWN">     0</i>
   <i type="logical" name="LHFCALC"> F  </i>
   <i type="string" name="PRECFOCK"></i>
   <i type="logical" name="LSYMGRAD"> F  </i>
   <i type="logical" name="LHFONE"> F  </i>
   <i type="logical" name="LRHFCALC"> F  </i>
   <i type="logical" name="LTHOMAS"> F  </i>
   <i type="logical" name="LMODELHF"> F  </i>
   <i name="ENCUT4O">     -1.00000000</i>
   <i type="int" name="EXXOEP">     0</i>
   <i type="int" name="FOURORBIT">     0</i>
   <i name="AEXX">      0.00000000</i>
   <i name="HFALPHA">      0.00000000</i>
   <i name="MCALPHA">      0.00000000</i>
   <i name="ALDAX">      1.00000000</i>
   <i name="AGGAX">      1.00000000</i>
   <i name="ALDAC">      1.00000000</i>
   <i name="AGGAC">      1.00000000</i>
   <i type="int" name="NKREDX">     1</i>
   <i type="int" name="NKREDY">     1</i>
   <i type="int" name="NKREDZ">     1</i>
   <i type="logical" name="SHIFTRED"> F  </i>
   <i type="logical" name="ODDONLY"> F  </i>
   <i type="logical" name="EVENONLY"> F  </i>
   <i type="int" name="LMAXFOCK">     0</i>
   <i type="int" name="NMAXFOCKAE">     0</i>
   <i type="logical" name="LFOCKAEDFT"> F  </i>
   <i name="HFSCREEN">      0.00000000</i>
   <i name="HFSCREENC">      0.00000000</i>
   <i type="int" name="NBANDSGWLOW">     0</i>
  </separator>
  <separator name="vdW DFT" >
   <i type="logical" name="LUSE_VDW"> F  </i>
   <i name="Zab_VDW">     -0.84910000</i>
   <i name="PARAM1">      0.12340000</i>
   <i name="PARAM2">      1.00000000</i>
   <i name="PARAM3">      0.00000000</i>
  </separator>
  <separator name="model GW" >
   <i type="int" name="MODEL_GW">     0</i>
   <i name="MODEL_EPS0">     20.67204851</i>
   <i name="MODEL_ALPHA">      1.00000000</i>
  </separator>
  <separator name="linear response parameters" >
   <i type="logical" name="LEPSILON"> F  </i>
   <i type="logical" name="LRPA"> F  </i>
   <i type="logical" name="LNABLA"> F  </i>
   <i type="logical" name="LVEL"> F  </i>
   <i type="int" name="KINTER">     0</i>
   <i name="CSHIFT">      0.10000000</i>
   <i name="OMEGAMAX">     -1.00000000</i>
   <i name="DEG_THRESHOLD">      0.00200000</i>
  </separator>
  <separator name="orbital magnetization" >
   <i type="logical" name="NUCIND"> F  </i>
   <v name="MAGPOS">      0.00000000      0.00000000      0.00000000</v>
   <i type="logical" name="LNICSALL"> T  </i>
   <i type="logical" name="ORBITALMAG"> F  </i>
   <i type="logical" name="LMAGBLOCH"> F  </i>
   <i type="logical" name="LCHIMAG"> F  </i>
   <i type="logical" name="LGAUGE"> T  </i>
   <i type="int" name="MAGATOM">     0</i>
   <v name="MAGDIPOL">      0.00000000      0.00000000      0.00000000</v>
   <v name="AVECCONST">      0.00000000      0.00000000      0.00000000</v>
  </separator>
  <separator name="response functions" >
   <i type="logical" name="LADDER"> F  </i>
   <i type="logical" name="LFXC"> F  </i>
   <i type="logical" name="LHARTREE"> T  </i>
   <i type="int" name="IBSE">     0</i>
   <v type="int" name="KPOINT">    -1     0     0     0</v>
   <i type="logical" name="LTCTE"> F  </i>
   <i type="logical" name="LTETE"> F  </i>
   <i type="logical" name="LTRIPLET"> F  </i>
   <i type="logical" name="LFXCEPS"> F  </i>
   <i type="logical" name="LFXHEG"> F  </i>
   <i type="int" name="NATURALO">     0</i>
   <i type="logical" name="L2ORDER"> F  </i>
   <i type="logical" name="LUSEW"> F  </i>
   <i name="ENCUTGW">     -2.00000000</i>
   <i name="ENCUTGWSOFT">     -2.00000000</i>
   <i name="ENCUTLF">     -1.00000000</i>
   <i type="int" name="LMAXMP2">    -1</i>
   <i name="SCISSOR">      0.00000000</i>
   <i type="int" name="NOMEGA">     0</i>
   <i type="int" name="NOMEGAR">     0</i>
   <i type="int" name="NBANDSGW">    -1</i>
   <i type="int" name="NBANDSO">    -1</i>
   <i type="int" name="NBANDSV">    -1</i>
   <i type="int" name="NELM">     1</i>
   <i type="int" name="NELMHF">     1</i>
   <i type="int" name="DIM">     3</i>
   <i type="int" name="ANTIRES">     0</i>
   <i name="OMEGAMAX">    -30.00000000</i>
   <i name="OMEGAMIN">    -30.00000000</i>
   <i name="OMEGATL">   -200.00000000</i>
   <i type="int" name="OMEGAGRID">     0</i>
   <i name="CSHIFT">     -0.10000000</i>
   <i type="logical" name="SELFENERGY"> F  </i>
   <i type="logical" name="LSPECTRAL"> F  </i>
   <i type="logical" name="LSPECTRALGW"> F  </i>
   <i type="logical" name="LSINGLES"> F  </i>
   <i type="logical" name="LFERMIGW"> F  </i>
   <i type="logical" name="ODDONLYGW"> F  </i>
   <i type="logical" name="EVENONLYGW"> F  </i>
   <i type="int" name="NKREDLFX">     1</i>
   <i type="int" name="NKREDLFY">     1</i>
   <i type="int" name="NKREDLFZ">     1</i>
   <i type="int" name="MAXMEM">  1800</i>
   <i type="int" name="TELESCOPE">     0</i>
   <i type="int" name="TAUPAR">     1</i>
   <i type="int" name="OMEGAPAR">    -1</i>
   <i name="LAMBDA">      1.00000000</i>
  </separator>
  <separator name="External order field" >
   <i name="OFIELD_KAPPA">      0.00000000</i>
   <v name="OFIELD_K">      0.00000000      0.00000000      0.00000000</v>
   <i name="OFIELD_Q6_NEAR">      0.00000000</i>
   <i name="OFIELD_Q6_FAR">      0.00000000</i>
   <i name="OFIELD_A">      0.00000000</i>
  </separator>
 </parameters>
 <atominfo>
  <atoms>      39 </atoms>
  <types>       3 </types>
  <array name="atoms" >
   <dimension dim="1">ion</dimension>
   <field type="string">element</field>
   <field type="int">atomtype</field>
   <set>
    <rc><c>Pt</c><c>   1</c></rc>
    <rc><c>Pt</c><c>   1</c></rc>
    <rc><c>Pt</c><c>   1</c></rc>
    <rc><c>Pt</c><c>   1</c></rc>
    <rc><c>Pt</c><c>   1</c></rc>
    <rc><c>Pt</c><c>   1</c></rc>
    <rc><c>Pt</c><c>   1</c></rc>
    <rc><c>Pt</c><c>   1</c></rc>
    <rc><c>Pt</c><c>   1</c></rc>
    <rc><c>Pt</c><c>   1</c></rc>
    <rc><c>Pt</c><c>   1</c></rc>
    <rc><c>Pt</c><c>   1</c></rc>
    <rc><c>Pt</c><c>   1</c></rc>
    <rc><c>Pt</c><c>   1</c></rc>
    <rc><c>Pt</c><c>   1</c></rc>
    <rc><c>Pt</c><c>   1</c></rc>
    <rc><c>Pt</c><c>   1</c></rc>
    <rc><c>Pt</c><c>   1</c></rc>
    <rc><c>Pt</c><c>   1</c></rc>
    <rc><c>Pt</c><c>   1</c></rc>
    <rc><c>Pt</c><c>   1</c></rc>
    <rc><c>Pt</c><c>   1</c></rc>
    <rc><c>Pt</c><c>   1</c></rc>
    <rc><c>Pt</c><c>   1</c></rc>
    <rc><c>Pt</c><c>   1</c></rc>
    <rc><c>Pt</c><c>   1</c></rc>
    <rc><c>Pt</c><c>   1</c></rc>
    <rc><c>Pt</c><c>   1</c></rc>
    <rc><c>Pt</c><c>   1</c></rc>
    <rc><c>Pt</c><c>   1</c></rc>
    <rc><c>Pt</c><c>   1</c></rc>
    <rc><c>Pt</c><c>   1</c></rc>
    <rc><c>Pt</c><c>   1</c></rc>
    <rc><c>Pt</c><c>   1</c></rc>
    <rc><c>Pt</c><c>   1</c></rc>
    <rc><c>Pt</c><c>   1</c></rc>
    <rc><c>C </c><c>   2</c></rc>
    <rc><c>H </c><c>   3</c></rc>
    <rc><c>H </c><c>   3</c></rc>
   </set>
  </array>
  <array name="atomtypes" >
   <dimension dim="1">type</dimension>
   <field type="int">atomspertype</field>
   <field type="string">element</field>
   <field>mass</field>
   <field>valence</field>
   <field type="string">pseudopotential</field>
   <set>
    <rc><c>  36</c><c>Pt</c><c>    195.08000000</c><c>     10.00000000</c><c>  PAW_PBE Pt 04Feb2005                  </c></rc>
    <rc><c>   1</c><c>C </c><c>     12.01100000</c><c>      4.00000000</c><c>  PAW_PBE C 08Apr2002                   </c></rc>
    <rc><c>   2</c><c>H </c><c>      1.00000000</c><c>      1.00000000</c><c>  PAW_PBE H 15Jun2001                   </c></rc>
   </set>
  </array>
 </atominfo>
 <structure name="initialpos" >
  <crystal>
   <varray name="basis" >
    <v>       8.42164176       0.00000000       0.00000000 </v>
    <v>       4.21082088       7.29335571       0.00000000 </v>
    <v>       0.00000000       0.00000000      21.87624171 </v>
   </varray>
   <i name="volume">   1343.68315334 </i>
   <varray name="rec_basis" >
    <v>       0.11874169      -0.06855555       0.00000000 </v>
    <v>       0.00000000       0.13711110       0.00000000 </v>
    <v>       0.00000000       0.00000000       0.04571169 </v>
   </varray>
  </crystal>
  <varray name="positions" >
   <v>       0.00000000       0.00000000       0.34283768 </v>
   <v>       0.33333333       0.00000000       0.34283768 </v>
   <v>       0.66666667       0.00000000       0.34283768 </v>
   <v>       0.00000000       0.33333333       0.34283768 </v>
   <v>       0.33333333       0.33333333       0.34283768 </v>
   <v>       0.66666667       0.33333333       0.34283768 </v>
   <v>       0.00000000       0.66666667       0.34283768 </v>
   <v>       0.33333333       0.66666667       0.34283768 </v>
   <v>       0.66666667       0.66666667       0.34283768 </v>
   <v>       0.11111111       0.11111111       0.44761256 </v>
   <v>       0.44444444       0.11111111       0.44761256 </v>
   <v>       0.77777778       0.11111111       0.44761256 </v>
   <v>       0.11111111       0.44444444       0.44761256 </v>
   <v>       0.44444444       0.44444444       0.44761256 </v>
   <v>       0.77777778       0.44444444       0.44761256 </v>
   <v>       0.11111111       0.77777778       0.44761256 </v>
   <v>       0.44444444       0.77777778       0.44761256 </v>
   <v>       0.77777778       0.77777778       0.44761256 </v>
   <v>       0.89066244       0.22135991       0.55083528 </v>
   <v>       0.22393181       0.22310650       0.55199432 </v>
   <v>       0.55592864       0.22143446       0.55250690 </v>
   <v>       0.89000229       0.55556716       0.55125181 </v>
   <v>       0.22397983       0.55200684       0.55300445 </v>
   <v>       0.55579777       0.55631476       0.55083341 </v>
   <v>       0.88637379       0.88952424       0.55303984 </v>
   <v>       0.22175210       0.88749662       0.55008214 </v>
   <v>       0.55727886       0.88969890       0.55198234 </v>
   <v>       0.00213814       0.99939619       0.65627260 </v>
   <v>       0.33094776       0.99526889       0.65417396 </v>
   <v>       0.66840920       0.00226880       0.66420355 </v>
   <v>       0.00308360       0.33423892       0.65638320 </v>
   <v>       0.33830544       0.33270607       0.66418967 </v>
   <v>       0.67375289       0.33752043       0.65478711 </v>
   <v>       0.00282872       0.66669848       0.65708710 </v>
   <v>       0.33570430       0.66610016       0.65625367 </v>
   <v>       0.66996470       0.66737644       0.65644398 </v>
   <v>       0.49879412       0.16293187       0.73265060 </v>
   <v>       0.56103555       0.22448420       0.76141965 </v>
   <v>       0.43506278       0.09957255       0.75972739 </v>
  </varray>
  <varray name="selective"  type="logical" >
   <v type="logical" >  F  F  F </v>
   <v type="logical" >  F  F  F </v>
   <v type="logical" >  F  F  F </v>
   <v type="logical" >  F  F  F </v>
   <v type="logical" >  F  F  F </v>
   <v type="logical" >  F  F  F </v>
   <v type="logical" >  F  F  F </v>
   <v type="logical" >  F  F  F </v>
   <v type="logical" >  F  F  F </v>
   <v type="logical" >  F  F  F </v>
   <v type="logical" >  F  F  F </v>
   <v type="logical" >  F  F  F </v>
   <v type="logical" >  F  F  F </v>
   <v type="logical" >  F  F  F </v>
   <v type="logical" >  F  F  F </v>
   <v type="logical" >  F  F  F </v>
   <v type="logical" >  F  F  F </v>
   <v type="logical" >  F  F  F </v>
   <v type="logical" >  T  T  T </v>
   <v type="logical" >  T  T  T </v>
   <v type="logical" >  T  T  T </v>
   <v type="logical" >  T  T  T </v>
   <v type="logical" >  T  T  T </v>
   <v type="logical" >  T  T  T </v>
   <v type="logical" >  T  T  T </v>
   <v type="logical" >  T  T  T </v>
   <v type="logical" >  T  T  T </v>
   <v type="logical" >  T  T  T </v>
   <v type="logical" >  T  T  T </v>
   <v type="logical" >  T  T  T </v>
   <v type="logical" >  T  T  T </v>
   <v type="logical" >  T  T  T </v>
   <v type="logical" >  T  T  T </v>
   <v type="logical" >  T  T  T </v>
   <v type="logical" >  T  T  T </v>
   <v type="logical" >  T  T  T </v>
   <v type="logical" >  T  T  T </v>
   <v type="logical" >  T  T  T </v>
   <v type="logical" >  T  T  T </v>
  </varray>
  <nose>
   <v>      -3.00000000       0.00000000       0.00010000       0.00010000 </v>
  </nose>
 </structure>
 <calculation>
  <scstep>
   <time name="dav">  136.60  139.03</time>
   <time name="total">  136.97  139.51</time>
   <energy>
    <i name="alphaZ">    939.05130981 </i>
    <i name="ewald">  92555.03492141 </i>
    <i name="hartreedc">-120807.49744894 </i>
    <i name="XCdc">    138.89050639 </i>
    <i name="pawpsdc">  25173.23737667 </i>
    <i name="pawaedc"> -24155.62788196 </i>
    <i name="eentropy">     -0.55451657 </i>
    <i name="bandstr">   1922.95403755 </i>
    <i name="atom">  26420.11475431 </i>
    <i name="e_fr_energy">   2185.60305866 </i>
    <i name="e_wo_entrp">   2186.15757524 </i>
    <i name="e_0_energy">   2185.88031695 </i>
   </energy>
  </scstep>
  <scstep>
   <time name="dav">  160.05  161.68</time>
   <time name="total">  160.05  161.75</time>
   <energy>
    <i name="e_fr_energy">    -79.25988014 </i>
    <i name="e_wo_entrp">    -78.20838691 </i>
    <i name="e_0_energy">    -78.73413352 </i>
   </energy>
  </scstep>
  <scstep>
   <time name="dav">  164.70  166.46</time>
   <time name="total">  164.71  166.54</time>
   <energy>
    <i name="e_fr_energy">   -235.42157821 </i>
    <i name="e_wo_entrp">   -233.53404726 </i>
    <i name="e_0_energy">   -234.47781274 </i>
   </energy>
  </scstep>
  <scstep>
   <time name="dav">  168.68  169.58</time>
   <time name="total">  170.71  171.70</time>
   <energy>
    <i name="e_fr_energy">   -242.25861443 </i>
    <i name="e_wo_entrp">   -240.30886862 </i>
    <i name="e_0_energy">   -241.28374153 </i>
   </energy>
  </scstep>
  <scstep>
   <time name="diag">   12.56   12.56</time>
   <time name="diis">   45.79   46.22</time>
   <time name="orth">    3.70    3.70</time>
   <time name="total">   64.17   64.63</time>
   <energy>
    <i name="e_fr_energy">   -231.30537685 </i>
    <i name="e_wo_entrp">   -229.25838872 </i>
    <i name="e_0_energy">   -230.28188279 </i>
   </energy>
  </scstep>
  <scstep>
   <time name="diag">   12.78   12.78</time>
   <time name="diis">   49.84   50.57</time>
   <time name="orth">    3.08    3.14</time>
   <time name="total">   67.94   68.93</time>
   <energy>
    <i name="e_fr_energy">   -270.72785649 </i>
    <i name="e_wo_entrp">   -269.51627995 </i>
    <i name="e_0_energy">   -270.12206822 </i>
   </energy>
  </scstep>
  <scstep>
   <time name="diag">   12.48   12.50</time>
   <time name="diis">   45.72   45.85</time>
   <time name="orth">    3.38    3.38</time>
   <time name="total">   64.14   64.41</time>
   <energy>
    <i name="e_fr_energy">   -227.65335931 </i>
    <i name="e_wo_entrp">   -225.65925826 </i>
    <i name="e_0_energy">   -226.65630879 </i>
   </energy>
  </scstep>
  <scstep>
   <time name="diag">   13.17   13.16</time>
   <time name="diis">   51.87   52.35</time>
   <time name="orth">    3.36    3.46</time>
   <time name="total">   70.53   71.11</time>
   <energy>
    <i name="e_fr_energy">   -241.30280499 </i>
    <i name="e_wo_entrp">   -239.95454479 </i>
    <i name="e_0_energy">   -240.62867489 </i>
   </energy>
  </scstep>
  <scstep>
   <time name="diag">   24.37   24.41</time>
   <time name="diis">   49.28   49.84</time>
   <time name="orth">    3.33    3.37</time>
   <time name="total">   79.09   79.79</time>
   <energy>
    <i name="e_fr_energy">   -230.87437006 </i>
    <i name="e_wo_entrp">   -228.98516245 </i>
    <i name="e_0_energy">   -229.92976625 </i>
   </energy>
  </scstep>
  <scstep>
   <time name="diag">   14.09   14.09</time>
   <time name="diis">   45.08   45.23</time>
   <time name="orth">    3.22    3.23</time>
   <time name="total">   66.12   66.31</time>
   <energy>
    <i name="e_fr_energy">   -225.95707905 </i>
    <i name="e_wo_entrp">   -223.88988982 </i>
    <i name="e_0_energy">   -224.92348444 </i>
   </energy>
  </scstep>
  <scstep>
   <time name="diag">   13.11   13.12</time>
   <time name="diis">   49.24   49.89</time>
   <time name="orth">    3.30    3.30</time>
   <time name="total">   67.73   68.41</time>
   <energy>
    <i name="e_fr_energy">   -225.70170806 </i>
    <i name="e_wo_entrp">   -223.59516594 </i>
    <i name="e_0_energy">   -224.64843700 </i>
   </energy>
  </scstep>
  <scstep>
   <time name="diag">   12.60   12.60</time>
   <time name="diis">   48.63   49.08</time>
   <time name="orth">    3.40    3.41</time>
   <time name="total">   67.07   67.61</time>
   <energy>
    <i name="e_fr_energy">   -225.62456731 </i>
    <i name="e_wo_entrp">   -223.51208571 </i>
    <i name="e_0_energy">   -224.56832651 </i>
   </energy>
  </scstep>
  <scstep>
   <time name="diag">   13.03   13.47</time>
   <time name="diis">   51.28   51.83</time>
   <time name="orth">    3.62    3.64</time>
   <time name="total">   71.43   73.18</time>
   <energy>
    <i name="e_fr_energy">   -225.60190373 </i>
    <i name="e_wo_entrp">   -223.49007821 </i>
    <i name="e_0_energy">   -224.54599097 </i>
   </energy>
  </scstep>
  <scstep>
   <time name="diag">   13.23   13.25</time>
   <time name="diis">   46.92   46.98</time>
   <time name="orth">    3.55    3.55</time>
   <time name="total">   66.25   66.50</time>
   <energy>
    <i name="e_fr_energy">   -225.58027449 </i>
    <i name="e_wo_entrp">   -223.46901895 </i>
    <i name="e_0_energy">   -224.52464672 </i>
   </energy>
  </scstep>
  <scstep>
   <time name="diag">   13.10   13.20</time>
   <time name="diis">   47.56   48.06</time>
   <time name="orth">    3.45    3.49</time>
   <time name="total">   66.19   66.84</time>
   <energy>
    <i name="e_fr_energy">   -225.57190350 </i>
    <i name="e_wo_entrp">   -223.45842353 </i>
    <i name="e_0_energy">   -224.51516351 </i>
   </energy>
  </scstep>
  <scstep>
   <time name="diag">   13.01   13.01</time>
   <time name="diis">   47.36   47.51</time>
   <time name="orth">    3.46    3.46</time>
   <time name="total">   65.96   66.15</time>
   <energy>
    <i name="e_fr_energy">   -225.56962564 </i>
    <i name="e_wo_entrp">   -223.45395568 </i>
    <i name="e_0_energy">   -224.51179066 </i>
   </energy>
  </scstep>
  <scstep>
   <time name="diag">   12.89   12.89</time>
   <time name="diis">   49.14   49.52</time>
   <time name="orth">    3.46    3.46</time>
   <time name="total">   67.60   68.01</time>
   <energy>
    <i name="e_fr_energy">   -225.56971132 </i>
    <i name="e_wo_entrp">   -223.45315410 </i>
    <i name="e_0_energy">   -224.51143271 </i>
   </energy>
  </scstep>
  <scstep>
   <time name="diag">   12.70   12.77</time>
   <time name="diis">   47.79   48.18</time>
   <time name="orth">    3.47    3.48</time>
   <time name="total">   67.09   67.57</time>
   <energy>
    <i name="e_fr_energy">   -225.56895029 </i>
    <i name="e_wo_entrp">   -223.45339916 </i>
    <i name="e_0_energy">   -224.51117473 </i>
   </energy>
  </scstep>
  <scstep>
   <time name="diag">   16.06   16.23</time>
   <time name="diis">   47.10   47.98</time>
   <time name="orth">    3.51    3.56</time>
   <time name="total">   70.46   71.77</time>
   <energy>
    <i name="e_fr_energy">   -225.56880986 </i>
    <i name="e_wo_entrp">   -223.45375052 </i>
    <i name="e_0_energy">   -224.51128019 </i>
   </energy>
  </scstep>
  <scstep>
   <time name="diag">   12.86   12.86</time>
   <time name="diis">   50.02   50.35</time>
   <time name="orth">    3.43    3.44</time>
   <time name="total">   69.03   69.43</time>
   <energy>
    <i name="e_fr_energy">   -225.56875696 </i>
    <i name="e_wo_entrp">   -223.45407519 </i>
    <i name="e_0_energy">   -224.51141607 </i>
   </energy>
  </scstep>
  <scstep>
   <time name="diag">   13.19   13.22</time>
   <time name="diis">   48.29   49.13</time>
   <time name="orth">    3.49    3.56</time>
   <time name="total">   67.63   68.72</time>
   <energy>
    <i name="e_fr_energy">   -225.56879202 </i>
    <i name="e_wo_entrp">   -223.45417398 </i>
    <i name="e_0_energy">   -224.51148300 </i>
   </energy>
  </scstep>
  <scstep>
   <time name="diag">   13.49   13.49</time>
   <time name="diis">   47.10   47.66</time>
   <time name="orth">    3.33    3.36</time>
   <time name="total">   67.49   68.20</time>
   <energy>
    <i name="e_fr_energy">   -225.56892303 </i>
    <i name="e_wo_entrp">   -223.45436998 </i>
    <i name="e_0_energy">   -224.51164651 </i>
   </energy>
  </scstep>
  <scstep>
   <time name="diag">   13.17   13.16</time>
   <time name="diis">   45.44   46.20</time>
   <time name="orth">    3.34    3.34</time>
   <time name="total">   65.63   66.44</time>
   <energy>
    <i name="e_fr_energy">   -225.56907072 </i>
    <i name="e_wo_entrp">   -223.45451720 </i>
    <i name="e_0_energy">   -224.51179396 </i>
   </energy>
  </scstep>
  <scstep>
   <time name="diag">   12.63   12.94</time>
   <time name="diis">   48.82   49.31</time>
   <time name="orth">    3.37    3.38</time>
   <time name="total">   66.89   67.73</time>
   <energy>
    <i name="e_fr_energy">   -225.56927431 </i>
    <i name="e_wo_entrp">   -223.45453423 </i>
    <i name="e_0_energy">   -224.51190427 </i>
   </energy>
  </scstep>
  <scstep>
   <time name="diag">   13.19   13.21</time>
   <time name="diis">   48.31   49.27</time>
   <time name="orth">    3.81    3.85</time>
   <time name="total">   67.40   68.44</time>
   <energy>
    <i name="e_fr_energy">   -225.56935531 </i>
    <i name="e_wo_entrp">   -223.45456870 </i>
    <i name="e_0_energy">   -224.51196201 </i>
   </energy>
  </scstep>
  <scstep>
   <time name="diag">   12.95   12.95</time>
   <time name="diis">   44.81   45.01</time>
   <time name="orth">    3.37    3.43</time>
   <time name="total">   63.23   63.53</time>
   <energy>
    <i name="e_fr_energy">   -225.56961549 </i>
    <i name="e_wo_entrp">   -223.45481970 </i>
    <i name="e_0_energy">   -224.51221759 </i>
   </energy>
  </scstep>
  <scstep>
   <time name="diag">   14.44   14.51</time>
   <time name="diis">   37.13   37.88</time>
   <time name="orth">    3.67    3.77</time>
   <time name="total">   59.39   60.34</time>
   <energy>
    <i name="e_fr_energy">   -225.56976462 </i>
    <i name="e_wo_entrp">   -223.45496398 </i>
    <i name="e_0_energy">   -224.51236430 </i>
   </energy>
  </scstep>
  <scstep>
   <time name="diag">   12.93   12.93</time>
   <time name="diis">   33.30   33.73</time>
   <time name="orth">    3.43    3.47</time>
   <time name="total">   51.74   52.26</time>
   <energy>
    <i name="e_fr_energy">   -225.56986454 </i>
    <i name="e_wo_entrp">   -223.45505882 </i>
    <i name="e_0_energy">   -224.51246168 </i>
   </energy>
  </scstep>
  <scstep>
   <time name="diag">   12.66   12.72</time>
   <time name="diis">   29.09   29.48</time>
   <time name="orth">    3.41    3.46</time>
   <time name="total">   47.39   47.89</time>
   <energy>
    <i name="e_fr_energy">   -225.56990953 </i>
    <i name="e_wo_entrp">   -223.45510659 </i>
    <i name="e_0_energy">   -224.51250806 </i>
   </energy>
  </scstep>
  <scstep>
   <time name="diag">   13.33   13.35</time>
   <time name="diis">   33.70   33.76</time>
   <time name="orth">    3.39    3.41</time>
   <time name="total">   53.59   54.49</time>
   <energy>
    <i name="e_fr_energy">   -225.56999139 </i>
    <i name="e_wo_entrp">   -223.45518240 </i>
    <i name="e_0_energy">   -224.51258689 </i>
   </energy>
  </scstep>
  <scstep>
   <time name="diag">   13.12   13.21</time>
   <time name="diis">   31.54   31.83</time>
   <time name="orth">    3.55    3.56</time>
   <time name="total">   50.35   50.77</time>
   <energy>
    <i name="e_fr_energy">   -225.57005703 </i>
    <i name="e_wo_entrp">   -223.45524476 </i>
    <i name="e_0_energy">   -224.51265089 </i>
   </energy>
  </scstep>
  <scstep>
   <time name="diag">   13.12   13.13</time>
   <time name="diis">   28.44   28.48</time>
   <time name="orth">    3.44    3.47</time>
   <time name="total">   47.56   47.66</time>
   <energy>
    <i name="e_fr_energy">   -225.57008554 </i>
    <i name="e_wo_entrp">   -223.45527675 </i>
    <i name="e_0_energy">   -224.51268115 </i>
   </energy>
  </scstep>
  <scstep>
   <time name="diag">   12.87   12.87</time>
   <time name="diis">   26.31   26.47</time>
   <time name="orth">    3.36    3.37</time>
   <time name="total">   44.77   44.98</time>
   <energy>
    <i name="e_fr_energy">   -225.57010114 </i>
    <i name="e_wo_entrp">   -223.45529246 </i>
    <i name="e_0_energy">   -224.51269680 </i>
   </energy>
  </scstep>
  <scstep>
   <time name="diag">   12.83   12.83</time>
   <time name="diis">   28.27   28.57</time>
   <time name="orth">    3.40    3.41</time>
   <time name="total">   47.01   47.34</time>
   <energy>
    <i name="e_fr_energy">   -225.57010754 </i>
    <i name="e_wo_entrp">   -223.45529833 </i>
    <i name="e_0_energy">   -224.51270294 </i>
   </energy>
  </scstep>
  <scstep>
   <time name="diag">   12.90   12.90</time>
   <time name="diis">   25.13   25.38</time>
   <time name="orth">    3.35    3.37</time>
   <time name="total">   43.52   43.83</time>
   <energy>
    <i name="e_fr_energy">   -225.57011217 </i>
    <i name="e_wo_entrp">   -223.45530230 </i>
    <i name="e_0_energy">   -224.51270723 </i>
   </energy>
  </scstep>
  <scstep>
   <time name="diag">   13.06   13.17</time>
   <time name="diis">   23.56   24.08</time>
   <time name="orth">    3.36    3.37</time>
   <time name="total">   42.49   43.18</time>
   <energy>
    <i name="e_fr_energy">   -225.57011381 </i>
    <i name="e_wo_entrp">   -223.45530376 </i>
    <i name="e_0_energy">   -224.51270878 </i>
   </energy>
  </scstep>
  <scstep>
   <time name="diag">   13.29   13.34</time>
   <time name="diis">   23.71   24.06</time>
   <time name="orth">    3.56    3.58</time>
   <time name="total">   42.62   43.06</time>
   <energy>
    <i name="e_fr_energy">   -225.57011498 </i>
    <i name="e_wo_entrp">   -223.45530502 </i>
    <i name="e_0_energy">   -224.51271000 </i>
   </energy>
  </scstep>
  <scstep>
   <time name="diag">   12.91   13.00</time>
   <time name="diis">   22.51   22.84</time>
   <time name="orth">    3.31    3.37</time>
   <time name="total">   39.00   39.51</time>
   <energy>
    <i name="alphaZ">    939.05130981 </i>
    <i name="ewald">  92555.03492141 </i>
    <i name="hartreedc">-120495.52092725 </i>
    <i name="XCdc">    127.36054569 </i>
    <i name="pawpsdc">  32016.74923395 </i>
    <i name="pawaedc"> -31097.04983245 </i>
    <i name="eentropy">     -2.11480982 </i>
    <i name="bandstr">   -689.19531124 </i>
    <i name="atom">  26420.11475431 </i>
    <i name="e_fr_energy">   -225.57011559 </i>
    <i name="e_wo_entrp">   -223.45530576 </i>
    <i name="e_0_energy">   -224.51271068 </i>
   </energy>
  </scstep>
  <structure>
   <crystal>
    <varray name="basis" >
     <v>       8.42164176       0.00000000       0.00000000 </v>
     <v>       4.21082088       7.29335571       0.00000000 </v>
     <v>       0.00000000       0.00000000      21.87624171 </v>
    </varray>
    <i name="volume">   1343.68315334 </i>
    <varray name="rec_basis" >
     <v>       0.11874169      -0.06855555       0.00000000 </v>
     <v>       0.00000000       0.13711110       0.00000000 </v>
     <v>       0.00000000       0.00000000       0.04571169 </v>
    </varray>
   </crystal>
   <varray name="positions" >
    <v>       0.00000000       0.00000000       0.34283768 </v>
    <v>       0.33333333       0.00000000       0.34283768 </v>
    <v>       0.66666667       0.00000000       0.34283768 </v>
    <v>       0.00000000       0.33333333       0.34283768 </v>
    <v>       0.33333333       0.33333333       0.34283768 </v>
    <v>       0.66666667       0.33333333       0.34283768 </v>
    <v>       0.00000000       0.66666667       0.34283768 </v>
    <v>       0.33333333       0.66666667       0.34283768 </v>
    <v>       0.66666667       0.66666667       0.34283768 </v>
    <v>       0.11111111       0.11111111       0.44761256 </v>
    <v>       0.44444444       0.11111111       0.44761256 </v>
    <v>       0.77777778       0.11111111       0.44761256 </v>
    <v>       0.11111111       0.44444444       0.44761256 </v>
    <v>       0.44444444       0.44444444       0.44761256 </v>
    <v>       0.77777778       0.44444444       0.44761256 </v>
    <v>       0.11111111       0.77777778       0.44761256 </v>
    <v>       0.44444444       0.77777778       0.44761256 </v>
    <v>       0.77777778       0.77777778       0.44761256 </v>
    <v>       0.89066244       0.22135991       0.55083528 </v>
    <v>       0.22393181       0.22310650       0.55199432 </v>
    <v>       0.55592864       0.22143446       0.55250690 </v>
    <v>       0.89000229       0.55556716       0.55125181 </v>
    <v>       0.22397983       0.55200684       0.55300445 </v>
    <v>       0.55579777       0.55631476       0.55083341 </v>
    <v>       0.88637379       0.88952424       0.55303984 </v>
    <v>       0.22175210       0.88749662       0.55008214 </v>
    <v>       0.55727886       0.88969890       0.55198234 </v>
    <v>       0.00213814       0.99939619       0.65627260 </v>
    <v>       0.33094776       0.99526889       0.65417396 </v>
    <v>       0.66840920       0.00226880       0.66420355 </v>
    <v>       0.00308360       0.33423892       0.65638320 </v>
    <v>       0.33830544       0.33270607       0.66418967 </v>
    <v>       0.67375289       0.33752043       0.65478711 </v>
    <v>       0.00282872       0.66669848       0.65708710 </v>
    <v>       0.33570430       0.66610016       0.65625367 </v>
    <v>       0.66996470       0.66737644       0.65644398 </v>
    <v>       0.49879412       0.16293187       0.73265060 </v>
    <v>       0.56103555       0.22448420       0.76141965 </v>
    <v>       0.43506278       0.09957255       0.75972739 </v>
   </varray>
  </structure>
  <varray name="forces" >
   <v>      -0.02439280       0.03904475      -0.08349194 </v>
   <v>      -0.01226527      -0.00416292      -0.05448557 </v>
   <v>       0.00895102      -0.00060518      -0.04773409 </v>
   <v>      -0.01503244      -0.00814179      -0.05695651 </v>
   <v>       0.00141811       0.01219367      -0.04736871 </v>
   <v>       0.00300582       0.00573801      -0.07387735 </v>
   <v>       0.00856694       0.00784884      -0.03806511 </v>
   <v>       0.02026471      -0.03633633      -0.08367571 </v>
   <v>      -0.01742465      -0.00433121      -0.05745752 </v>
   <v>       0.00867081       0.00106281      -0.04744846 </v>
   <v>       0.00907781       0.00247766       0.18761909 </v>
   <v>      -0.02669211      -0.07320033       0.12017781 </v>
   <v>       0.06515830       0.02056923       0.17764986 </v>
   <v>      -0.07214389       0.00674651       0.12111285 </v>
   <v>       0.00942865       0.00102762       0.01880951 </v>
   <v>      -0.02663148      -0.01832824      -0.09183150 </v>
   <v>       0.00825208       0.00097017      -0.04749439 </v>
   <v>       0.05446546       0.03927584       0.18235634 </v>
   <v>       0.00061714       0.00214622      -0.01088851 </v>
   <v>      -0.00256333      -0.00289611      -0.00984549 </v>
   <v>       0.00266040       0.00371060      -0.00624803 </v>
   <v>      -0.00558833      -0.00036379      -0.00358938 </v>
   <v>       0.00072213       0.00226902      -0.00984455 </v>
   <v>       0.00205903       0.00228269      -0.00932577 </v>
   <v>       0.00006607      -0.00531694      -0.01410005 </v>
   <v>       0.01047720       0.00009424      -0.00982829 </v>
   <v>       0.00045194      -0.00406618      -0.00943542 </v>
   <v>       0.00498383       0.00660264       0.00648920 </v>
   <v>       0.00526360       0.00738051       0.00238565 </v>
   <v>      -0.00410886       0.00108285       0.00061084 </v>
   <v>      -0.00278862      -0.00922321       0.00286974 </v>
   <v>      -0.00236017      -0.00329222      -0.00165389 </v>
   <v>      -0.00453841      -0.00034272       0.00483195 </v>
   <v>      -0.00093466      -0.00072498      -0.00147323 </v>
   <v>       0.00430224      -0.00083028       0.00960211 </v>
   <v>      -0.00796009       0.00373184      -0.00592261 </v>
   <v>       0.00769981       0.00289868      -0.00229732 </v>
   <v>      -0.00909617       0.00133633      -0.00740244 </v>
   <v>      -0.00204186       0.00167170      -0.00277313 </v>
  </varray>
  <varray name="stress" >
   <v>     -42.14738250       1.19554015      -0.28057580 </v>
   <v>       1.19554011     -43.67239783       0.01708876 </v>
   <v>      -0.28057585       0.01708878      -0.25408660 </v>
  </varray>
  <energy>
   <i name="e_fr_energy">   -225.57011559 </i>
   <i name="e_wo_entrp">   -224.51271068 </i>
   <i name="e_0_energy">     -2.11480982 </i>
  </energy>
  <time name="totalsc"> 2742.03 2770.12</time>
  <eigenvalues>
   <array>
    <dimension dim="1">band</dimension>
    <dimension dim="2">kpoint</dimension>
    <dimension dim="3">spin</dimension>
    <field>eigene</field>
    <field>occ</field>
    <set>
     <set comment="spin 1">
      <set comment="kpoint 1">
       <r>  -10.9741    1.0000 </r>
       <r>   -7.9218    1.0000 </r>
       <r>   -6.6168    1.0000 </r>
       <r>   -5.6609    1.0000 </r>
       <r>   -5.5820    1.0000 </r>
       <r>   -5.5334    1.0000 </r>
       <r>   -5.5278    1.0000 </r>
       <r>   -5.4405    1.0000 </r>
       <r>   -5.3864    1.0000 </r>
       <r>   -5.3699    1.0000 </r>
       <r>   -5.3337    1.0000 </r>
       <r>   -5.1895    1.0000 </r>
       <r>   -4.9964    1.0000 </r>
       <r>   -4.8893    1.0000 </r>
       <r>   -4.8816    1.0000 </r>
       <r>   -4.8655    1.0000 </r>
       <r>   -4.8377    1.0000 </r>
       <r>   -4.8044    1.0000 </r>
       <r>   -4.7023    1.0000 </r>
       <r>   -4.3950    1.0000 </r>
       <r>   -4.3905    1.0000 </r>
       <r>   -4.3632    1.0000 </r>
       <r>   -4.3552    1.0000 </r>
       <r>   -4.3128    1.0000 </r>
       <r>   -4.2722    1.0000 </r>
       <r>   -4.2030    1.0000 </r>
       <r>   -4.1677    1.0000 </r>
       <r>   -4.1247    1.0000 </r>
       <r>   -4.0858    1.0000 </r>
       <r>   -4.0591    1.0000 </r>
       <r>   -4.0046    1.0000 </r>
       <r>   -3.9868    1.0000 </r>
       <r>   -3.9598    1.0000 </r>
       <r>   -3.9446    1.0000 </r>
       <r>   -3.9187    1.0000 </r>
       <r>   -3.8947    1.0000 </r>
       <r>   -3.8889    1.0000 </r>
       <r>   -3.8560    1.0000 </r>
       <r>   -3.8475    1.0000 </r>
       <r>   -3.7615    1.0000 </r>
       <r>   -3.7549    1.0000 </r>
       <r>   -3.7060    1.0000 </r>
       <r>   -3.4303    1.0000 </r>
       <r>   -3.3643    1.0000 </r>
       <r>   -3.2989    1.0000 </r>
       <r>   -3.2953    1.0000 </r>
       <r>   -3.2706    1.0000 </r>
       <r>   -3.2579    1.0000 </r>
       <r>   -3.2521    1.0000 </r>
       <r>   -3.1601    1.0000 </r>
       <r>   -3.1554    1.0000 </r>
       <r>   -3.1091    1.0000 </r>
       <r>   -3.0332    1.0000 </r>
       <r>   -3.0177    1.0000 </r>
       <r>   -2.9784    1.0000 </r>
       <r>   -2.9668    1.0000 </r>
       <r>   -2.9102    1.0000 </r>
       <r>   -2.5652    1.0000 </r>
       <r>   -2.4631    1.0000 </r>
       <r>   -2.4275    1.0000 </r>
       <r>   -2.4094    1.0000 </r>
       <r>   -2.3908    1.0000 </r>
       <r>   -2.3612    1.0000 </r>
       <r>   -2.3455    1.0000 </r>
       <r>   -2.3418    1.0000 </r>
       <r>   -2.3086    1.0000 </r>
       <r>   -2.3007    1.0000 </r>
       <r>   -2.2837    1.0000 </r>
       <r>   -2.2511    1.0000 </r>
       <r>   -2.2307    1.0000 </r>
       <r>   -2.2290    1.0000 </r>
       <r>   -2.1873    1.0000 </r>
       <r>   -2.1709    1.0000 </r>
       <r>   -2.1478    1.0000 </r>
       <r>   -2.1285    1.0000 </r>
       <r>   -2.0964    1.0000 </r>
       <r>   -2.0755    1.0000 </r>
       <r>   -2.0515    1.0000 </r>
       <r>   -2.0445    1.0000 </r>
       <r>   -2.0197    1.0000 </r>
       <r>   -1.9816    1.0000 </r>
       <r>   -1.9366    1.0000 </r>
       <r>   -1.9174    1.0000 </r>
       <r>   -1.8997    1.0000 </r>
       <r>   -1.8649    1.0000 </r>
       <r>   -1.8128    1.0000 </r>
       <r>   -1.7728    1.0000 </r>
       <r>   -1.7559    1.0000 </r>
       <r>   -1.7368    1.0000 </r>
       <r>   -1.7051    1.0000 </r>
       <r>   -1.6963    1.0000 </r>
       <r>   -1.6859    1.0000 </r>
       <r>   -1.6615    1.0000 </r>
       <r>   -1.6495    1.0000 </r>
       <r>   -1.6063    1.0000 </r>
       <r>   -1.5743    1.0000 </r>
       <r>   -1.5637    1.0000 </r>
       <r>   -1.5609    1.0000 </r>
       <r>   -1.5231    1.0000 </r>
       <r>   -1.5108    1.0000 </r>
       <r>   -1.4269    1.0000 </r>
       <r>   -1.4015    1.0000 </r>
       <r>   -1.3979    1.0000 </r>
       <r>   -1.3768    1.0000 </r>
       <r>   -1.3743    1.0000 </r>
       <r>   -1.3622    1.0000 </r>
       <r>   -1.3468    1.0000 </r>
       <r>   -1.3111    1.0000 </r>
       <r>   -1.2273    1.0000 </r>
       <r>   -1.2171    1.0000 </r>
       <r>   -1.1489    1.0000 </r>
       <r>   -1.0419    1.0000 </r>
       <r>   -1.0308    1.0000 </r>
       <r>   -0.9335    1.0000 </r>
       <r>   -0.8949    1.0000 </r>
       <r>   -0.8743    1.0000 </r>
       <r>   -0.7888    1.0000 </r>
       <r>   -0.7652    1.0000 </r>
       <r>   -0.7601    1.0000 </r>
       <r>   -0.7495    1.0000 </r>
       <r>   -0.7381    1.0000 </r>
       <r>   -0.6855    1.0000 </r>
       <r>   -0.6819    1.0000 </r>
       <r>   -0.6422    1.0000 </r>
       <r>   -0.6077    1.0000 </r>
       <r>   -0.5575    1.0000 </r>
       <r>   -0.4550    1.0000 </r>
       <r>   -0.3795    1.0000 </r>
       <r>   -0.3276    1.0000 </r>
       <r>   -0.3011    1.0000 </r>
       <r>   -0.2750    1.0000 </r>
       <r>   -0.2202    1.0000 </r>
       <r>   -0.2076    1.0000 </r>
       <r>   -0.2032    1.0000 </r>
       <r>   -0.1954    1.0000 </r>
       <r>   -0.1719    1.0000 </r>
       <r>   -0.1083    1.0000 </r>
       <r>   -0.0842    1.0000 </r>
       <r>   -0.0649    1.0000 </r>
       <r>   -0.0032    1.0000 </r>
       <r>    0.0297    1.0000 </r>
       <r>    0.0598    1.0000 </r>
       <r>    0.0897    1.0000 </r>
       <r>    0.1233    1.0000 </r>
       <r>    0.1416    1.0000 </r>
       <r>    0.1602    1.0000 </r>
       <r>    0.1937    1.0000 </r>
       <r>    0.2223    1.0000 </r>
       <r>    0.2640    1.0000 </r>
       <r>    0.3516    0.9999 </r>
       <r>    0.3540    0.9999 </r>
       <r>    0.3742    0.9999 </r>
       <r>    0.3886    0.9999 </r>
       <r>    0.4316    0.9998 </r>
       <r>    0.4365    0.9998 </r>
       <r>    0.4641    0.9998 </r>
       <r>    0.4948    0.9997 </r>
       <r>    0.5233    0.9996 </r>
       <r>    0.5307    0.9996 </r>
       <r>    0.5516    0.9995 </r>
       <r>    0.5745    0.9993 </r>
       <r>    0.6098    0.9990 </r>
       <r>    0.6320    0.9988 </r>
       <r>    0.6358    0.9988 </r>
       <r>    0.6579    0.9985 </r>
       <r>    0.6846    0.9980 </r>
       <r>    0.6965    0.9977 </r>
       <r>    0.7170    0.9972 </r>
       <r>    0.7198    0.9971 </r>
       <r>    0.7509    0.9961 </r>
       <r>    0.7849    0.9945 </r>
       <r>    0.7882    0.9943 </r>
       <r>    0.8092    0.9930 </r>
       <r>    0.8153    0.9926 </r>
       <r>    0.8400    0.9905 </r>
       <r>    0.8766    0.9864 </r>
       <r>    0.8886    0.9847 </r>
       <r>    0.9290    0.9773 </r>
       <r>    0.9701    0.9661 </r>
       <r>    0.9785    0.9632 </r>
       <r>    0.9938    0.9574 </r>
       <r>    1.0230    0.9438 </r>
       <r>    1.0238    0.9433 </r>
       <r>    1.0545    0.9245 </r>
       <r>    1.0738    0.9099 </r>
       <r>    1.0807    0.9041 </r>
       <r>    1.0901    0.8956 </r>
       <r>    1.1003    0.8857 </r>
       <r>    1.1253    0.8578 </r>
       <r>    1.1297    0.8524 </r>
       <r>    1.1569    0.8148 </r>
       <r>    1.2278    0.6840 </r>
       <r>    1.3296    0.4388 </r>
       <r>    1.3523    0.3841 </r>
       <r>    1.3540    0.3801 </r>
       <r>    1.3922    0.2950 </r>
       <r>    1.3948    0.2896 </r>
       <r>    1.4279    0.2265 </r>
       <r>    1.6961    0.0196 </r>
       <r>    1.8383    0.0048 </r>
       <r>    2.0270    0.0007 </r>
       <r>    2.1599    0.0002 </r>
       <r>    2.2554    0.0001 </r>
       <r>    2.3442    0.0000 </r>
       <r>    2.4405    0.0000 </r>
       <r>    3.1495    0.0000 </r>
       <r>    3.8760    0.0000 </r>
       <r>    4.2995    0.0000 </r>
       <r>    4.5617    0.0000 </r>
       <r>    4.5728    0.0000 </r>
       <r>    4.7546    0.0000 </r>
       <r>    5.1635    0.0000 </r>
       <r>    5.4461    0.0000 </r>
       <r>    5.6160    0.0000 </r>
       <r>    5.7656    0.0000 </r>
       <r>    6.1083    0.0000 </r>
       <r>    6.1270    0.0000 </r>
       <r>    6.4059    0.0000 </r>
       <r>    6.5341    0.0000 </r>
       <r>    6.6931    0.0000 </r>
      </set>
      <set comment="kpoint 2">
       <r>  -10.9740    1.0000 </r>
       <r>   -7.9218    1.0000 </r>
       <r>   -6.6166    1.0000 </r>
       <r>   -5.6532    1.0000 </r>
       <r>   -5.5946    1.0000 </r>
       <r>   -5.5322    1.0000 </r>
       <r>   -5.5220    1.0000 </r>
       <r>   -5.4404    1.0000 </r>
       <r>   -5.3871    1.0000 </r>
       <r>   -5.3659    1.0000 </r>
       <r>   -5.3384    1.0000 </r>
       <r>   -5.1915    1.0000 </r>
       <r>   -4.9728    1.0000 </r>
       <r>   -4.9101    1.0000 </r>
       <r>   -4.8871    1.0000 </r>
       <r>   -4.8518    1.0000 </r>
       <r>   -4.8442    1.0000 </r>
       <r>   -4.8152    1.0000 </r>
       <r>   -4.6862    1.0000 </r>
       <r>   -4.4035    1.0000 </r>
       <r>   -4.3835    1.0000 </r>
       <r>   -4.3710    1.0000 </r>
       <r>   -4.3535    1.0000 </r>
       <r>   -4.3183    1.0000 </r>
       <r>   -4.2386    1.0000 </r>
       <r>   -4.2310    1.0000 </r>
       <r>   -4.1778    1.0000 </r>
       <r>   -4.1270    1.0000 </r>
       <r>   -4.0678    1.0000 </r>
       <r>   -4.0335    1.0000 </r>
       <r>   -4.0026    1.0000 </r>
       <r>   -3.9894    1.0000 </r>
       <r>   -3.9710    1.0000 </r>
       <r>   -3.9543    1.0000 </r>
       <r>   -3.9226    1.0000 </r>
       <r>   -3.9062    1.0000 </r>
       <r>   -3.8956    1.0000 </r>
       <r>   -3.8837    1.0000 </r>
       <r>   -3.8272    1.0000 </r>
       <r>   -3.7551    1.0000 </r>
       <r>   -3.7451    1.0000 </r>
       <r>   -3.7089    1.0000 </r>
       <r>   -3.4528    1.0000 </r>
       <r>   -3.3455    1.0000 </r>
       <r>   -3.3034    1.0000 </r>
       <r>   -3.2930    1.0000 </r>
       <r>   -3.2703    1.0000 </r>
       <r>   -3.2565    1.0000 </r>
       <r>   -3.2359    1.0000 </r>
       <r>   -3.1868    1.0000 </r>
       <r>   -3.1379    1.0000 </r>
       <r>   -3.1035    1.0000 </r>
       <r>   -3.0424    1.0000 </r>
       <r>   -3.0252    1.0000 </r>
       <r>   -2.9763    1.0000 </r>
       <r>   -2.9573    1.0000 </r>
       <r>   -2.9248    1.0000 </r>
       <r>   -2.5626    1.0000 </r>
       <r>   -2.4690    1.0000 </r>
       <r>   -2.4279    1.0000 </r>
       <r>   -2.4170    1.0000 </r>
       <r>   -2.3805    1.0000 </r>
       <r>   -2.3679    1.0000 </r>
       <r>   -2.3390    1.0000 </r>
       <r>   -2.3252    1.0000 </r>
       <r>   -2.3159    1.0000 </r>
       <r>   -2.2954    1.0000 </r>
       <r>   -2.2878    1.0000 </r>
       <r>   -2.2641    1.0000 </r>
       <r>   -2.2488    1.0000 </r>
       <r>   -2.2037    1.0000 </r>
       <r>   -2.1875    1.0000 </r>
       <r>   -2.1755    1.0000 </r>
       <r>   -2.1442    1.0000 </r>
       <r>   -2.1295    1.0000 </r>
       <r>   -2.1002    1.0000 </r>
       <r>   -2.0751    1.0000 </r>
       <r>   -2.0533    1.0000 </r>
       <r>   -2.0313    1.0000 </r>
       <r>   -2.0174    1.0000 </r>
       <r>   -1.9790    1.0000 </r>
       <r>   -1.9640    1.0000 </r>
       <r>   -1.9152    1.0000 </r>
       <r>   -1.9014    1.0000 </r>
       <r>   -1.8820    1.0000 </r>
       <r>   -1.7942    1.0000 </r>
       <r>   -1.7769    1.0000 </r>
       <r>   -1.7567    1.0000 </r>
       <r>   -1.7355    1.0000 </r>
       <r>   -1.7237    1.0000 </r>
       <r>   -1.6931    1.0000 </r>
       <r>   -1.6824    1.0000 </r>
       <r>   -1.6443    1.0000 </r>
       <r>   -1.6347    1.0000 </r>
       <r>   -1.6071    1.0000 </r>
       <r>   -1.5945    1.0000 </r>
       <r>   -1.5709    1.0000 </r>
       <r>   -1.5432    1.0000 </r>
       <r>   -1.5259    1.0000 </r>
       <r>   -1.5077    1.0000 </r>
       <r>   -1.4264    1.0000 </r>
       <r>   -1.3981    1.0000 </r>
       <r>   -1.3846    1.0000 </r>
       <r>   -1.3769    1.0000 </r>
       <r>   -1.3738    1.0000 </r>
       <r>   -1.3558    1.0000 </r>
       <r>   -1.3487    1.0000 </r>
       <r>   -1.3087    1.0000 </r>
       <r>   -1.2608    1.0000 </r>
       <r>   -1.2313    1.0000 </r>
       <r>   -1.1460    1.0000 </r>
       <r>   -1.0591    1.0000 </r>
       <r>   -0.9892    1.0000 </r>
       <r>   -0.9442    1.0000 </r>
       <r>   -0.8733    1.0000 </r>
       <r>   -0.8419    1.0000 </r>
       <r>   -0.8179    1.0000 </r>
       <r>   -0.7833    1.0000 </r>
       <r>   -0.7679    1.0000 </r>
       <r>   -0.7461    1.0000 </r>
       <r>   -0.7273    1.0000 </r>
       <r>   -0.7142    1.0000 </r>
       <r>   -0.6460    1.0000 </r>
       <r>   -0.6183    1.0000 </r>
       <r>   -0.5718    1.0000 </r>
       <r>   -0.5223    1.0000 </r>
       <r>   -0.4691    1.0000 </r>
       <r>   -0.3722    1.0000 </r>
       <r>   -0.3258    1.0000 </r>
       <r>   -0.3106    1.0000 </r>
       <r>   -0.2384    1.0000 </r>
       <r>   -0.2201    1.0000 </r>
       <r>   -0.2070    1.0000 </r>
       <r>   -0.1956    1.0000 </r>
       <r>   -0.1906    1.0000 </r>
       <r>   -0.1731    1.0000 </r>
       <r>   -0.1336    1.0000 </r>
       <r>   -0.1038    1.0000 </r>
       <r>   -0.0685    1.0000 </r>
       <r>   -0.0434    1.0000 </r>
       <r>    0.0237    1.0000 </r>
       <r>    0.0499    1.0000 </r>
       <r>    0.0846    1.0000 </r>
       <r>    0.1253    1.0000 </r>
       <r>    0.1366    1.0000 </r>
       <r>    0.1549    1.0000 </r>
       <r>    0.1865    1.0000 </r>
       <r>    0.2334    1.0000 </r>
       <r>    0.2640    1.0000 </r>
       <r>    0.3476    0.9999 </r>
       <r>    0.3635    0.9999 </r>
       <r>    0.3812    0.9999 </r>
       <r>    0.3981    0.9999 </r>
       <r>    0.4195    0.9999 </r>
       <r>    0.4389    0.9998 </r>
       <r>    0.4720    0.9998 </r>
       <r>    0.5036    0.9997 </r>
       <r>    0.5241    0.9996 </r>
       <r>    0.5462    0.9995 </r>
       <r>    0.5551    0.9994 </r>
       <r>    0.5687    0.9994 </r>
       <r>    0.5859    0.9992 </r>
       <r>    0.6272    0.9989 </r>
       <r>    0.6476    0.9986 </r>
       <r>    0.6630    0.9984 </r>
       <r>    0.6928    0.9978 </r>
       <r>    0.7072    0.9975 </r>
       <r>    0.7178    0.9972 </r>
       <r>    0.7356    0.9966 </r>
       <r>    0.7454    0.9963 </r>
       <r>    0.7648    0.9955 </r>
       <r>    0.7783    0.9949 </r>
       <r>    0.7951    0.9939 </r>
       <r>    0.8088    0.9930 </r>
       <r>    0.8359    0.9909 </r>
       <r>    0.8666    0.9877 </r>
       <r>    0.8969    0.9834 </r>
       <r>    0.9378    0.9752 </r>
       <r>    0.9502    0.9720 </r>
       <r>    0.9717    0.9655 </r>
       <r>    0.9945    0.9571 </r>
       <r>    1.0107    0.9499 </r>
       <r>    1.0205    0.9451 </r>
       <r>    1.0497    0.9278 </r>
       <r>    1.0622    0.9189 </r>
       <r>    1.0871    0.8984 </r>
       <r>    1.0993    0.8866 </r>
       <r>    1.1062    0.8796 </r>
       <r>    1.1233    0.8603 </r>
       <r>    1.1316    0.8500 </r>
       <r>    1.1600    0.8101 </r>
       <r>    1.2492    0.6361 </r>
       <r>    1.3240    0.4528 </r>
       <r>    1.3381    0.4182 </r>
       <r>    1.3773    0.3269 </r>
       <r>    1.3818    0.3170 </r>
       <r>    1.3958    0.2875 </r>
       <r>    1.4256    0.2305 </r>
       <r>    1.6543    0.0295 </r>
       <r>    1.8770    0.0033 </r>
       <r>    2.0565    0.0005 </r>
       <r>    2.1384    0.0002 </r>
       <r>    2.2341    0.0001 </r>
       <r>    2.3582    0.0000 </r>
       <r>    2.4377    0.0000 </r>
       <r>    3.1296    0.0000 </r>
       <r>    3.9413    0.0000 </r>
       <r>    4.3078    0.0000 </r>
       <r>    4.4272    0.0000 </r>
       <r>    4.6042    0.0000 </r>
       <r>    4.8171    0.0000 </r>
       <r>    5.1160    0.0000 </r>
       <r>    5.5084    0.0000 </r>
       <r>    5.6241    0.0000 </r>
       <r>    5.7184    0.0000 </r>
       <r>    6.1038    0.0000 </r>
       <r>    6.1542    0.0000 </r>
       <r>    6.4505    0.0000 </r>
       <r>    6.4855    0.0000 </r>
       <r>    6.8130    0.0000 </r>
      </set>
      <set comment="kpoint 3">
       <r>  -10.9740    1.0000 </r>
       <r>   -7.9218    1.0000 </r>
       <r>   -6.6166    1.0000 </r>
       <r>   -5.6506    1.0000 </r>
       <r>   -5.5946    1.0000 </r>
       <r>   -5.5342    1.0000 </r>
       <r>   -5.5229    1.0000 </r>
       <r>   -5.4404    1.0000 </r>
       <r>   -5.3888    1.0000 </r>
       <r>   -5.3663    1.0000 </r>
       <r>   -5.3363    1.0000 </r>
       <r>   -5.1915    1.0000 </r>
       <r>   -4.9728    1.0000 </r>
       <r>   -4.9102    1.0000 </r>
       <r>   -4.8877    1.0000 </r>
       <r>   -4.8514    1.0000 </r>
       <r>   -4.8435    1.0000 </r>
       <r>   -4.8149    1.0000 </r>
       <r>   -4.6862    1.0000 </r>
       <r>   -4.4036    1.0000 </r>
       <r>   -4.3839    1.0000 </r>
       <r>   -4.3711    1.0000 </r>
       <r>   -4.3533    1.0000 </r>
       <r>   -4.3184    1.0000 </r>
       <r>   -4.2380    1.0000 </r>
       <r>   -4.2311    1.0000 </r>
       <r>   -4.1782    1.0000 </r>
       <r>   -4.1266    1.0000 </r>
       <r>   -4.0681    1.0000 </r>
       <r>   -4.0330    1.0000 </r>
       <r>   -4.0019    1.0000 </r>
       <r>   -3.9883    1.0000 </r>
       <r>   -3.9707    1.0000 </r>
       <r>   -3.9528    1.0000 </r>
       <r>   -3.9242    1.0000 </r>
       <r>   -3.9080    1.0000 </r>
       <r>   -3.8968    1.0000 </r>
       <r>   -3.8840    1.0000 </r>
       <r>   -3.8275    1.0000 </r>
       <r>   -3.7544    1.0000 </r>
       <r>   -3.7445    1.0000 </r>
       <r>   -3.7088    1.0000 </r>
       <r>   -3.4527    1.0000 </r>
       <r>   -3.3455    1.0000 </r>
       <r>   -3.3032    1.0000 </r>
       <r>   -3.2918    1.0000 </r>
       <r>   -3.2714    1.0000 </r>
       <r>   -3.2571    1.0000 </r>
       <r>   -3.2363    1.0000 </r>
       <r>   -3.1867    1.0000 </r>
       <r>   -3.1384    1.0000 </r>
       <r>   -3.1033    1.0000 </r>
       <r>   -3.0432    1.0000 </r>
       <r>   -3.0241    1.0000 </r>
       <r>   -2.9767    1.0000 </r>
       <r>   -2.9573    1.0000 </r>
       <r>   -2.9243    1.0000 </r>
       <r>   -2.5628    1.0000 </r>
       <r>   -2.4702    1.0000 </r>
       <r>   -2.4291    1.0000 </r>
       <r>   -2.4185    1.0000 </r>
       <r>   -2.3814    1.0000 </r>
       <r>   -2.3683    1.0000 </r>
       <r>   -2.3389    1.0000 </r>
       <r>   -2.3228    1.0000 </r>
       <r>   -2.3156    1.0000 </r>
       <r>   -2.2951    1.0000 </r>
       <r>   -2.2879    1.0000 </r>
       <r>   -2.2634    1.0000 </r>
       <r>   -2.2486    1.0000 </r>
       <r>   -2.2043    1.0000 </r>
       <r>   -2.1880    1.0000 </r>
       <r>   -2.1757    1.0000 </r>
       <r>   -2.1443    1.0000 </r>
       <r>   -2.1289    1.0000 </r>
       <r>   -2.1014    1.0000 </r>
       <r>   -2.0753    1.0000 </r>
       <r>   -2.0537    1.0000 </r>
       <r>   -2.0323    1.0000 </r>
       <r>   -2.0167    1.0000 </r>
       <r>   -1.9730    1.0000 </r>
       <r>   -1.9605    1.0000 </r>
       <r>   -1.9142    1.0000 </r>
       <r>   -1.9058    1.0000 </r>
       <r>   -1.8851    1.0000 </r>
       <r>   -1.7940    1.0000 </r>
       <r>   -1.7759    1.0000 </r>
       <r>   -1.7581    1.0000 </r>
       <r>   -1.7362    1.0000 </r>
       <r>   -1.7245    1.0000 </r>
       <r>   -1.6928    1.0000 </r>
       <r>   -1.6818    1.0000 </r>
       <r>   -1.6431    1.0000 </r>
       <r>   -1.6332    1.0000 </r>
       <r>   -1.6067    1.0000 </r>
       <r>   -1.5943    1.0000 </r>
       <r>   -1.5708    1.0000 </r>
       <r>   -1.5437    1.0000 </r>
       <r>   -1.5261    1.0000 </r>
       <r>   -1.5080    1.0000 </r>
       <r>   -1.4280    1.0000 </r>
       <r>   -1.4000    1.0000 </r>
       <r>   -1.3838    1.0000 </r>
       <r>   -1.3769    1.0000 </r>
       <r>   -1.3739    1.0000 </r>
       <r>   -1.3553    1.0000 </r>
       <r>   -1.3466    1.0000 </r>
       <r>   -1.3090    1.0000 </r>
       <r>   -1.2587    1.0000 </r>
       <r>   -1.2310    1.0000 </r>
       <r>   -1.1493    1.0000 </r>
       <r>   -1.0590    1.0000 </r>
       <r>   -0.9896    1.0000 </r>
       <r>   -0.9447    1.0000 </r>
       <r>   -0.8732    1.0000 </r>
       <r>   -0.8419    1.0000 </r>
       <r>   -0.8181    1.0000 </r>
       <r>   -0.7834    1.0000 </r>
       <r>   -0.7675    1.0000 </r>
       <r>   -0.7457    1.0000 </r>
       <r>   -0.7272    1.0000 </r>
       <r>   -0.7135    1.0000 </r>
       <r>   -0.6447    1.0000 </r>
       <r>   -0.6184    1.0000 </r>
       <r>   -0.5706    1.0000 </r>
       <r>   -0.5226    1.0000 </r>
       <r>   -0.4690    1.0000 </r>
       <r>   -0.3720    1.0000 </r>
       <r>   -0.3260    1.0000 </r>
       <r>   -0.3101    1.0000 </r>
       <r>   -0.2408    1.0000 </r>
       <r>   -0.2185    1.0000 </r>
       <r>   -0.2058    1.0000 </r>
       <r>   -0.1967    1.0000 </r>
       <r>   -0.1906    1.0000 </r>
       <r>   -0.1723    1.0000 </r>
       <r>   -0.1335    1.0000 </r>
       <r>   -0.1026    1.0000 </r>
       <r>   -0.0681    1.0000 </r>
       <r>   -0.0426    1.0000 </r>
       <r>    0.0233    1.0000 </r>
       <r>    0.0497    1.0000 </r>
       <r>    0.0852    1.0000 </r>
       <r>    0.1263    1.0000 </r>
       <r>    0.1379    1.0000 </r>
       <r>    0.1511    1.0000 </r>
       <r>    0.1864    1.0000 </r>
       <r>    0.2323    1.0000 </r>
       <r>    0.2639    1.0000 </r>
       <r>    0.3468    0.9999 </r>
       <r>    0.3631    0.9999 </r>
       <r>    0.3804    0.9999 </r>
       <r>    0.3984    0.9999 </r>
       <r>    0.4200    0.9999 </r>
       <r>    0.4382    0.9998 </r>
       <r>    0.4726    0.9998 </r>
       <r>    0.5049    0.9997 </r>
       <r>    0.5236    0.9996 </r>
       <r>    0.5464    0.9995 </r>
       <r>    0.5556    0.9994 </r>
       <r>    0.5690    0.9994 </r>
       <r>    0.5860    0.9992 </r>
       <r>    0.6270    0.9989 </r>
       <r>    0.6464    0.9986 </r>
       <r>    0.6635    0.9984 </r>
       <r>    0.6927    0.9978 </r>
       <r>    0.7072    0.9975 </r>
       <r>    0.7179    0.9972 </r>
       <r>    0.7355    0.9967 </r>
       <r>    0.7439    0.9964 </r>
       <r>    0.7650    0.9955 </r>
       <r>    0.7789    0.9948 </r>
       <r>    0.7941    0.9940 </r>
       <r>    0.8079    0.9931 </r>
       <r>    0.8370    0.9908 </r>
       <r>    0.8665    0.9877 </r>
       <r>    0.8966    0.9834 </r>
       <r>    0.9371    0.9754 </r>
       <r>    0.9504    0.9720 </r>
       <r>    0.9718    0.9655 </r>
       <r>    0.9935    0.9575 </r>
       <r>    1.0128    0.9490 </r>
       <r>    1.0212    0.9447 </r>
       <r>    1.0498    0.9278 </r>
       <r>    1.0630    0.9184 </r>
       <r>    1.0878    0.8978 </r>
       <r>    1.1000    0.8859 </r>
       <r>    1.1061    0.8797 </r>
       <r>    1.1243    0.8590 </r>
       <r>    1.1314    0.8503 </r>
       <r>    1.1615    0.8078 </r>
       <r>    1.2452    0.6452 </r>
       <r>    1.3250    0.4503 </r>
       <r>    1.3366    0.4217 </r>
       <r>    1.3772    0.3271 </r>
       <r>    1.3822    0.3162 </r>
       <r>    1.3946    0.2899 </r>
       <r>    1.4244    0.2326 </r>
       <r>    1.6546    0.0294 </r>
       <r>    1.8769    0.0033 </r>
       <r>    2.0562    0.0005 </r>
       <r>    2.1371    0.0002 </r>
       <r>    2.2341    0.0001 </r>
       <r>    2.3597    0.0000 </r>
       <r>    2.4384    0.0000 </r>
       <r>    3.1298    0.0000 </r>
       <r>    3.9411    0.0000 </r>
       <r>    4.3100    0.0000 </r>
       <r>    4.4244    0.0000 </r>
       <r>    4.6038    0.0000 </r>
       <r>    4.8173    0.0000 </r>
       <r>    5.1166    0.0000 </r>
       <r>    5.5088    0.0000 </r>
       <r>    5.6246    0.0000 </r>
       <r>    5.7189    0.0000 </r>
       <r>    6.1012    0.0000 </r>
       <r>    6.1525    0.0000 </r>
       <r>    6.4454    0.0000 </r>
       <r>    6.5025    0.0000 </r>
       <r>    6.6895    0.0000 </r>
      </set>
      <set comment="kpoint 4">
       <r>  -10.9724    1.0000 </r>
       <r>   -7.7667    1.0000 </r>
       <r>   -6.4677    1.0000 </r>
       <r>   -6.0106    1.0000 </r>
       <r>   -5.8238    1.0000 </r>
       <r>   -5.4527    1.0000 </r>
       <r>   -5.3927    1.0000 </r>
       <r>   -5.2949    1.0000 </r>
       <r>   -5.2853    1.0000 </r>
       <r>   -5.2184    1.0000 </r>
       <r>   -5.1923    1.0000 </r>
       <r>   -5.1583    1.0000 </r>
       <r>   -5.0214    1.0000 </r>
       <r>   -4.9686    1.0000 </r>
       <r>   -4.9184    1.0000 </r>
       <r>   -4.8513    1.0000 </r>
       <r>   -4.7277    1.0000 </r>
       <r>   -4.7087    1.0000 </r>
       <r>   -4.6505    1.0000 </r>
       <r>   -4.4579    1.0000 </r>
       <r>   -4.3839    1.0000 </r>
       <r>   -4.3231    1.0000 </r>
       <r>   -4.3058    1.0000 </r>
       <r>   -4.2736    1.0000 </r>
       <r>   -4.2551    1.0000 </r>
       <r>   -4.2112    1.0000 </r>
       <r>   -4.1948    1.0000 </r>
       <r>   -4.1311    1.0000 </r>
       <r>   -4.1188    1.0000 </r>
       <r>   -4.1117    1.0000 </r>
       <r>   -4.0841    1.0000 </r>
       <r>   -4.0458    1.0000 </r>
       <r>   -4.0324    1.0000 </r>
       <r>   -3.9774    1.0000 </r>
       <r>   -3.9330    1.0000 </r>
       <r>   -3.9092    1.0000 </r>
       <r>   -3.7708    1.0000 </r>
       <r>   -3.7267    1.0000 </r>
       <r>   -3.7153    1.0000 </r>
       <r>   -3.6770    1.0000 </r>
       <r>   -3.6468    1.0000 </r>
       <r>   -3.6018    1.0000 </r>
       <r>   -3.4933    1.0000 </r>
       <r>   -3.4330    1.0000 </r>
       <r>   -3.3811    1.0000 </r>
       <r>   -3.3422    1.0000 </r>
       <r>   -3.3206    1.0000 </r>
       <r>   -3.2948    1.0000 </r>
       <r>   -3.2483    1.0000 </r>
       <r>   -3.1782    1.0000 </r>
       <r>   -3.1213    1.0000 </r>
       <r>   -3.0775    1.0000 </r>
       <r>   -3.0114    1.0000 </r>
       <r>   -2.9935    1.0000 </r>
       <r>   -2.9639    1.0000 </r>
       <r>   -2.9511    1.0000 </r>
       <r>   -2.8749    1.0000 </r>
       <r>   -2.7539    1.0000 </r>
       <r>   -2.7288    1.0000 </r>
       <r>   -2.6204    1.0000 </r>
       <r>   -2.5351    1.0000 </r>
       <r>   -2.5142    1.0000 </r>
       <r>   -2.4994    1.0000 </r>
       <r>   -2.4569    1.0000 </r>
       <r>   -2.4445    1.0000 </r>
       <r>   -2.4167    1.0000 </r>
       <r>   -2.3845    1.0000 </r>
       <r>   -2.3632    1.0000 </r>
       <r>   -2.3089    1.0000 </r>
       <r>   -2.2744    1.0000 </r>
       <r>   -2.2568    1.0000 </r>
       <r>   -2.2368    1.0000 </r>
       <r>   -2.2159    1.0000 </r>
       <r>   -2.1919    1.0000 </r>
       <r>   -2.1692    1.0000 </r>
       <r>   -2.1296    1.0000 </r>
       <r>   -2.0590    1.0000 </r>
       <r>   -2.0262    1.0000 </r>
       <r>   -1.9850    1.0000 </r>
       <r>   -1.9723    1.0000 </r>
       <r>   -1.9625    1.0000 </r>
       <r>   -1.9396    1.0000 </r>
       <r>   -1.9107    1.0000 </r>
       <r>   -1.9042    1.0000 </r>
       <r>   -1.8714    1.0000 </r>
       <r>   -1.8359    1.0000 </r>
       <r>   -1.8107    1.0000 </r>
       <r>   -1.7911    1.0000 </r>
       <r>   -1.7687    1.0000 </r>
       <r>   -1.7279    1.0000 </r>
       <r>   -1.7125    1.0000 </r>
       <r>   -1.6995    1.0000 </r>
       <r>   -1.6929    1.0000 </r>
       <r>   -1.6582    1.0000 </r>
       <r>   -1.6421    1.0000 </r>
       <r>   -1.6137    1.0000 </r>
       <r>   -1.6075    1.0000 </r>
       <r>   -1.5738    1.0000 </r>
       <r>   -1.5522    1.0000 </r>
       <r>   -1.5252    1.0000 </r>
       <r>   -1.4811    1.0000 </r>
       <r>   -1.4605    1.0000 </r>
       <r>   -1.4376    1.0000 </r>
       <r>   -1.4291    1.0000 </r>
       <r>   -1.4057    1.0000 </r>
       <r>   -1.3714    1.0000 </r>
       <r>   -1.3348    1.0000 </r>
       <r>   -1.3156    1.0000 </r>
       <r>   -1.2896    1.0000 </r>
       <r>   -1.2558    1.0000 </r>
       <r>   -1.2235    1.0000 </r>
       <r>   -1.1872    1.0000 </r>
       <r>   -1.1611    1.0000 </r>
       <r>   -1.0741    1.0000 </r>
       <r>   -1.0546    1.0000 </r>
       <r>   -1.0512    1.0000 </r>
       <r>   -0.9818    1.0000 </r>
       <r>   -0.8827    1.0000 </r>
       <r>   -0.8172    1.0000 </r>
       <r>   -0.7878    1.0000 </r>
       <r>   -0.7679    1.0000 </r>
       <r>   -0.7433    1.0000 </r>
       <r>   -0.7096    1.0000 </r>
       <r>   -0.6923    1.0000 </r>
       <r>   -0.6302    1.0000 </r>
       <r>   -0.5956    1.0000 </r>
       <r>   -0.5478    1.0000 </r>
       <r>   -0.5082    1.0000 </r>
       <r>   -0.4498    1.0000 </r>
       <r>   -0.3340    1.0000 </r>
       <r>   -0.3142    1.0000 </r>
       <r>   -0.3027    1.0000 </r>
       <r>   -0.2718    1.0000 </r>
       <r>   -0.2540    1.0000 </r>
       <r>   -0.2165    1.0000 </r>
       <r>   -0.1638    1.0000 </r>
       <r>   -0.1565    1.0000 </r>
       <r>   -0.1294    1.0000 </r>
       <r>   -0.0668    1.0000 </r>
       <r>   -0.0125    1.0000 </r>
       <r>    0.0194    1.0000 </r>
       <r>    0.0284    1.0000 </r>
       <r>    0.0575    1.0000 </r>
       <r>    0.0865    1.0000 </r>
       <r>    0.1140    1.0000 </r>
       <r>    0.1268    1.0000 </r>
       <r>    0.1510    1.0000 </r>
       <r>    0.1698    1.0000 </r>
       <r>    0.1937    1.0000 </r>
       <r>    0.2162    1.0000 </r>
       <r>    0.2540    1.0000 </r>
       <r>    0.2820    1.0000 </r>
       <r>    0.3044    1.0000 </r>
       <r>    0.3295    0.9999 </r>
       <r>    0.3549    0.9999 </r>
       <r>    0.3929    0.9999 </r>
       <r>    0.4137    0.9999 </r>
       <r>    0.4489    0.9998 </r>
       <r>    0.5018    0.9997 </r>
       <r>    0.5637    0.9994 </r>
       <r>    0.5973    0.9992 </r>
       <r>    0.6265    0.9989 </r>
       <r>    0.6769    0.9981 </r>
       <r>    0.7052    0.9975 </r>
       <r>    0.7261    0.9969 </r>
       <r>    0.7645    0.9955 </r>
       <r>    0.7783    0.9949 </r>
       <r>    0.8335    0.9911 </r>
       <r>    0.8481    0.9897 </r>
       <r>    0.8870    0.9849 </r>
       <r>    0.9189    0.9794 </r>
       <r>    0.9392    0.9749 </r>
       <r>    0.9732    0.9650 </r>
       <r>    0.9966    0.9563 </r>
       <r>    1.0236    0.9435 </r>
       <r>    1.0347    0.9372 </r>
       <r>    1.0708    0.9123 </r>
       <r>    1.0864    0.8991 </r>
       <r>    1.1136    0.8715 </r>
       <r>    1.1262    0.8567 </r>
       <r>    1.1581    0.8130 </r>
       <r>    1.1837    0.7709 </r>
       <r>    1.1996    0.7415 </r>
       <r>    1.2441    0.6479 </r>
       <r>    1.2564    0.6192 </r>
       <r>    1.2811    0.5595 </r>
       <r>    1.3017    0.5084 </r>
       <r>    1.3160    0.4727 </r>
       <r>    1.3572    0.3725 </r>
       <r>    1.3718    0.3391 </r>
       <r>    1.4280    0.2262 </r>
       <r>    1.4594    0.1760 </r>
       <r>    1.4821    0.1455 </r>
       <r>    1.5286    0.0966 </r>
       <r>    1.5792    0.0606 </r>
       <r>    1.6119    0.0444 </r>
       <r>    1.6486    0.0312 </r>
       <r>    1.8050    0.0067 </r>
       <r>    1.8322    0.0051 </r>
       <r>    1.8804    0.0032 </r>
       <r>    2.1269    0.0003 </r>
       <r>    2.3276    0.0000 </r>
       <r>    2.7734    0.0000 </r>
       <r>    2.9000    0.0000 </r>
       <r>    2.9625    0.0000 </r>
       <r>    3.1637    0.0000 </r>
       <r>    3.8070    0.0000 </r>
       <r>    4.0274    0.0000 </r>
       <r>    4.4604    0.0000 </r>
       <r>    4.6629    0.0000 </r>
       <r>    4.9086    0.0000 </r>
       <r>    5.0605    0.0000 </r>
       <r>    5.2162    0.0000 </r>
       <r>    5.3889    0.0000 </r>
       <r>    5.6077    0.0000 </r>
       <r>    5.7220    0.0000 </r>
       <r>    5.9618    0.0000 </r>
       <r>    6.1828    0.0000 </r>
       <r>    6.3878    0.0000 </r>
       <r>    6.5308    0.0000 </r>
      </set>
      <set comment="kpoint 5">
       <r>  -10.9728    1.0000 </r>
       <r>   -7.7668    1.0000 </r>
       <r>   -6.4684    1.0000 </r>
       <r>   -6.0144    1.0000 </r>
       <r>   -5.8204    1.0000 </r>
       <r>   -5.4641    1.0000 </r>
       <r>   -5.3848    1.0000 </r>
       <r>   -5.2953    1.0000 </r>
       <r>   -5.2856    1.0000 </r>
       <r>   -5.2214    1.0000 </r>
       <r>   -5.2054    1.0000 </r>
       <r>   -5.1489    1.0000 </r>
       <r>   -5.0476    1.0000 </r>
       <r>   -4.9334    1.0000 </r>
       <r>   -4.9016    1.0000 </r>
       <r>   -4.8488    1.0000 </r>
       <r>   -4.7272    1.0000 </r>
       <r>   -4.7158    1.0000 </r>
       <r>   -4.6925    1.0000 </r>
       <r>   -4.4460    1.0000 </r>
       <r>   -4.3953    1.0000 </r>
       <r>   -4.3245    1.0000 </r>
       <r>   -4.2878    1.0000 </r>
       <r>   -4.2661    1.0000 </r>
       <r>   -4.2487    1.0000 </r>
       <r>   -4.2108    1.0000 </r>
       <r>   -4.1961    1.0000 </r>
       <r>   -4.1710    1.0000 </r>
[...]
      </set>
     </set>
    </set>
   </array>
  </eigenvalues>
  <separator name="orbital magnetization" >
   <v name="MAGDIPOLOUT">      0.00000000      0.00000000      0.00000000</v>
  </separator>
  <dos>
   <i name="efermi">      1.30503885 </i>
   <total>
    <array>
     <dimension dim="1">gridpoints</dimension>
     <dimension dim="2">spin</dimension>
     <field>energy</field>
     <field>total</field>
     <field>integrated</field>
     <set>
      <set comment="spin 1">
       <r>   -11.9741     0.0000     0.0000 </r>
       <r>   -11.9082     0.0000     0.0000 </r>
       <r>   -11.8422     0.0000     0.0000 </r>
       <r>   -11.7763     0.0096     0.0006 </r>
       <r>   -11.7103     0.0090     0.0012 </r>
       <r>   -11.6443     0.0173     0.0024 </r>
       <r>   -11.5784     0.0335     0.0046 </r>
       <r>   -11.5124     0.0645     0.0088 </r>
       <r>   -11.4465     0.1240     0.0170 </r>
       <r>   -11.3805     0.2370     0.0326 </r>
       <r>   -11.3145     0.4479     0.0622 </r>
       <r>   -11.2486     0.8291     0.1169 </r>
       <r>   -11.1826     1.4776     0.2143 </r>
       <r>   -11.1167     2.4631     0.3768 </r>
       <r>   -11.0507     3.6821     0.6197 </r>
       <r>   -10.9848     4.6965     0.9294 </r>
       <r>   -10.9188     4.9123     1.2534 </r>
       <r>   -10.8528     4.1790     1.5291 </r>
       <r>   -10.7869     2.9743     1.7252 </r>
       <r>   -10.7209     1.8586     1.8478 </r>
       <r>   -10.6550     1.0686     1.9183 </r>
       <r>   -10.5890     0.5852     1.9569 </r>
       <r>   -10.5231     0.3119     1.9775 </r>
       <r>   -10.4571     0.1639     1.9883 </r>
       <r>   -10.3911     0.0854     1.9939 </r>
       <r>   -10.3252     0.0444     1.9969 </r>
       <r>   -10.2592     0.0230     1.9984 </r>
       <r>   -10.1933     0.0119     1.9992 </r>
       <r>   -10.1273     0.0000     2.0000 </r>
       <r>   -10.0614     0.0000     2.0000 </r>
       <r>    -9.9954     0.0000     2.0000 </r>
       <r>    -9.9294     0.0000     2.0000 </r>
       <r>    -9.8635     0.0000     2.0000 </r>
       <r>    -9.7975     0.0000     2.0000 </r>
       <r>    -9.7316     0.0000     2.0000 </r>
       <r>    -9.6656     0.0000     2.0000 </r>
       <r>    -9.5997     0.0000     2.0000 </r>
       <r>    -9.5337     0.0000     2.0000 </r>
       <r>    -9.4677     0.0000     2.0000 </r>
       <r>    -9.4018     0.0000     2.0000 </r>
       <r>    -9.3358     0.0000     2.0000 </r>
       <r>    -9.2699     0.0000     2.0000 </r>
       <r>    -9.2039     0.0000     2.0000 </r>
       <r>    -9.1380     0.0000     2.0000 </r>
       <r>    -9.0720     0.0000     2.0000 </r>
       <r>    -9.0060     0.0000     2.0000 </r>
       <r>    -8.9401     0.0000     2.0000 </r>
       <r>    -8.8741     0.0000     2.0000 </r>
       <r>    -8.8082     0.0000     2.0000 </r>
       <r>    -8.7422     0.0005     2.0000 </r>
       <r>    -8.6763     0.0010     2.0001 </r>
       <r>    -8.6103     0.0021     2.0002 </r>
       <r>    -8.5443     0.0037     2.0005 </r>
       <r>    -8.4784     0.0073     2.0009 </r>
       <r>    -8.4124     0.0134     2.0018 </r>
       <r>    -8.3465     0.0257     2.0035 </r>
       <r>    -8.2805     0.0507     2.0069 </r>
       <r>    -8.2146     0.0941     2.0131 </r>
       <r>    -8.1486     0.1743     2.0246 </r>
       <r>    -8.0826     0.3107     2.0451 </r>
       <r>    -8.0167     0.5222     2.0795 </r>
       <r>    -7.9507     0.8058     2.1327 </r>
       <r>    -7.8848     1.1264     2.2069 </r>
       <r>    -7.8188     1.4254     2.3010 </r>
       <r>    -7.7529     1.6576     2.4103 </r>
       <r>    -7.6869     1.8038     2.5293 </r>
       <r>    -7.6209     1.8866     2.6537 </r>
       <r>    -7.5550     1.9502     2.7823 </r>
       <r>    -7.4890     2.0273     2.9160 </r>
       <r>    -7.4231     2.0980     3.0544 </r>
       <r>    -7.3571     2.1152     3.1939 </r>
       <r>    -7.2912     2.0886     3.3317 </r>
       <r>    -7.2252     2.0670     3.4680 </r>
       <r>    -7.1592     2.0911     3.6060 </r>
       <r>    -7.0933     2.1716     3.7492 </r>
       <r>    -7.0273     2.2923     3.9005 </r>
       <r>    -6.9614     2.3941     4.0585 </r>
       <r>    -6.8954     2.4494     4.2201 </r>
       <r>    -6.8295     2.4983     4.3849 </r>
       <r>    -6.7635     2.6082     4.5570 </r>
       <r>    -6.6975     2.8338     4.7439 </r>
       <r>    -6.6316     3.2065     4.9555 </r>
       <r>    -6.5656     3.6918     5.1991 </r>
       <r>    -6.4997     4.1724     5.4744 </r>
       <r>    -6.4337     4.5153     5.7722 </r>
       <r>    -6.3678     4.6715     6.0805 </r>
       <r>    -6.3018     4.7249     6.3921 </r>
       <r>    -6.2358     4.7838     6.7078 </r>
       <r>    -6.1699     4.8842     7.0300 </r>
       <r>    -6.1039     5.0118     7.3608 </r>
       <r>    -6.0380     5.2089     7.7043 </r>
       <r>    -5.9720     5.5425     8.0700 </r>
       <r>    -5.9061     5.9769     8.4642 </r>
       <r>    -5.8401     6.4243     8.8880 </r>
       <r>    -5.7741     6.8629     9.3408 </r>
       <r>    -5.7082     7.3966     9.8288 </r>
       <r>    -5.6422     8.1841    10.3688 </r>
       <r>    -5.5763     9.3925    10.9885 </r>
       <r>    -5.5103    11.1754    11.7257 </r>
       <r>    -5.4444    13.6328    12.6250 </r>
       <r>    -5.3784    16.6230    13.7215 </r>
       <r>    -5.3124    19.7096    15.0218 </r>
       <r>    -5.2465    22.4836    16.5048 </r>
       <r>    -5.1805    24.7974    18.1405 </r>
       <r>    -5.1146    26.7122    19.9026 </r>
       <r>    -5.0486    28.3536    21.7729 </r>
       <r>    -4.9827    29.8440    23.7416 </r>
       <r>    -4.9167    31.1344    25.7953 </r>
       <r>    -4.8507    32.0863    27.9118 </r>
       <r>    -4.7848    32.7241    30.0705 </r>
       <r>    -4.7188    33.3848    32.2728 </r>
       <r>    -4.6529    34.4954    34.5481 </r>
       <r>    -4.5869    36.2305    36.9383 </r>
       <r>    -4.5210    38.5329    39.4806 </r>
       <r>    -4.4550    41.2742    42.2038 </r>
       <r>    -4.3890    44.2256    45.1215 </r>
       <r>    -4.3231    46.9343    48.2183 </r>
       <r>    -4.2571    48.8779    51.4428 </r>
       <r>    -4.1912    49.7586    54.7258 </r>
       <r>    -4.1252    49.7016    58.0048 </r>
       <r>    -4.0593    49.0565    61.2417 </r>
       <r>    -3.9933    48.0847    64.4142 </r>
       <r>    -3.9273    46.6981    67.4952 </r>
       <r>    -3.8614    44.7027    70.4447 </r>
       <r>    -3.7954    42.2607    73.2332 </r>
       <r>    -3.7295    39.8627    75.8635 </r>
       <r>    -3.6635    38.0133    78.3718 </r>
       <r>    -3.5976    37.1097    80.8209 </r>
       <r>    -3.5316    37.4913    83.2951 </r>
       <r>    -3.4656    39.2498    85.8860 </r>
       <r>    -3.3997    41.8824    88.6499 </r>
       <r>    -3.3337    44.4029    91.5803 </r>
       <r>    -3.2678    46.0098    94.6165 </r>
       <r>    -3.2018    46.6795    97.6968 </r>
       <r>    -3.1359    47.0614   100.8027 </r>
       <r>    -3.0699    47.6812   103.9489 </r>
       <r>    -3.0039    48.3939   107.1422 </r>
       <r>    -2.9380    48.6539   110.3523 </r>
       <r>    -2.8720    48.1411   113.5289 </r>
       <r>    -2.8061    47.1051   116.6368 </r>
       <r>    -2.7401    46.1601   119.6823 </r>
       <r>    -2.6742    45.9849   122.7163 </r>
       <r>    -2.6082    47.0837   125.8232 </r>
       <r>    -2.5422    49.4147   129.0841 </r>
       <r>    -2.4763    52.4722   132.5469 </r>
       <r>    -2.4103    55.7671   136.2266 </r>
       <r>    -2.3444    59.1074   140.1263 </r>
       <r>    -2.2784    62.3093   144.2373 </r>
       <r>    -2.2125    64.9528   148.5233 </r>
       <r>    -2.1465    66.8875   152.9369 </r>
       <r>    -2.0805    68.5866   157.4622 </r>
       <r>    -2.0146    70.5726   162.1184 </r>
       <r>    -1.9486    72.8214   166.9231 </r>
       <r>    -1.8827    74.8371   171.8600 </r>
       <r>    -1.8167    76.2373   176.8897 </r>
       <r>    -1.7508    77.1037   181.9766 </r>
       <r>    -1.6848    77.6095   187.0973 </r>
       <r>    -1.6188    77.7784   192.2292 </r>
       <r>    -1.5529    77.3674   197.3336 </r>
       <r>    -1.4869    75.8170   202.3363 </r>
       <r>    -1.4210    72.6178   207.1286 </r>
       <r>    -1.3550    67.8535   211.6061 </r>
       <r>    -1.2891    62.2796   215.7158 </r>
       <r>    -1.2231    56.9053   219.4712 </r>
       <r>    -1.1571    52.4981   222.9362 </r>
       <r>    -1.0912    49.4857   226.2027 </r>
       <r>    -1.0252    48.1726   229.3825 </r>
       <r>    -0.9593    48.7985   232.6033 </r>
       <r>    -0.8933    51.3344   235.9918 </r>
       <r>    -0.8274    55.0797   239.6269 </r>
       <r>    -0.7614    58.5675   243.4926 </r>
       <r>    -0.6954    60.2358   247.4683 </r>
       <r>    -0.6295    59.4661   251.3932 </r>
       <r>    -0.5635    57.0096   255.1557 </r>
       <r>    -0.4976    54.2501   258.7357 </r>
       <r>    -0.4316    52.2150   262.1813 </r>
       <r>    -0.3657    51.2464   265.5627 </r>
       <r>    -0.2997    51.2419   268.9440 </r>
       <r>    -0.2337    52.0072   272.3755 </r>
       <r>    -0.1678    53.3843   275.8978 </r>
       <r>    -0.1018    55.3190   279.5476 </r>
       <r>    -0.0359    57.7305   283.3571 </r>
       <r>     0.0301    60.3589   287.3402 </r>
       <r>     0.0960    62.7386   291.4812 </r>
       <r>     0.1620    64.3226   295.7258 </r>
       <r>     0.2280    64.5382   299.9842 </r>
       <r>     0.2939    63.1539   304.1511 </r>
       <r>     0.3599    60.5023   308.1433 </r>
       <r>     0.4258    57.4397   311.9332 </r>
       <r>     0.4918    54.9355   315.5583 </r>
       <r>     0.5577    53.6604   319.0990 </r>
       <r>     0.6237    53.5876   322.6352 </r>
       <r>     0.6897    54.2155   326.2127 </r>
       <r>     0.7556    55.1032   329.8487 </r>
       <r>     0.8216    56.3633   333.5685 </r>
       <r>     0.8875    58.5632   337.4330 </r>
       <r>     0.9535    61.9577   341.5217 </r>
       <r>     1.0194    66.0182   345.8786 </r>
       <r>     1.0854    69.6524   350.4749 </r>
       <r>     1.1514    71.8022   355.2127 </r>
       <r>     1.2173    71.8382   359.9526 </r>
       <r>     1.2833    69.5813   364.5435 </r>
       <r>     1.3492    65.2710   368.8499 </r>
       <r>     1.4152    59.5881   372.7818 </r>
       <r>     1.4811    53.3650   376.3033 </r>
       <r>     1.5471    46.9677   379.4031 </r>
       <r>     1.6131    40.3043   382.0631 </r>
       <r>     1.6790    33.5981   384.2806 </r>
       <r>     1.7450    27.6277   386.1045 </r>
       <r>     1.8109    23.0077   387.6243 </r>
       <r>     1.8769    19.7131   388.9269 </r>
       <r>     1.9428    17.3570   390.0745 </r>
       <r>     2.0088    15.6374   391.1082 </r>
       <r>     2.0748    14.3572   392.0577 </r>
       <r>     2.1407    13.3816   392.9428 </r>
       <r>     2.2067    12.6853   393.7813 </r>
       <r>     2.2726    12.2855   394.5929 </r>
       <r>     2.3386    12.0955   395.3925 </r>
       <r>     2.4045    11.9412   396.1819 </r>
       <r>     2.4705    11.6831   396.9532 </r>
       <r>     2.5365    11.3493   397.7022 </r>
       <r>     2.6024    11.1393   398.4374 </r>
       <r>     2.6684    11.1963   399.1766 </r>
       <r>     2.7343    11.4593   399.9329 </r>
       <r>     2.8003    11.7582   400.7089 </r>
       <r>     2.8662    12.0225   401.5023 </r>
       <r>     2.9322    12.2891   402.3133 </r>
       <r>     2.9982    12.5883   403.1439 </r>
       <r>     3.0641    12.8695   403.9932 </r>
       <r>     3.1301    13.0086   404.8514 </r>
       <r>     3.1960    12.8194   405.6973 </r>
       <r>     3.2620    12.2375   406.5050 </r>
       <r>     3.3279    11.4612   407.2612 </r>
       <r>     3.3939    10.7617   407.9713 </r>
       <r>     3.4599    10.3586   408.6548 </r>
       <r>     3.5258    10.3665   409.3389 </r>
       <r>     3.5918    10.7939   410.0514 </r>
       <r>     3.6577    11.4862   410.8092 </r>
       <r>     3.7237    12.1014   411.6078 </r>
       <r>     3.7896    12.3190   412.4207 </r>
       <r>     3.8556    12.0897   413.2184 </r>
       <r>     3.9216    11.6671   413.9885 </r>
       <r>     3.9875    11.4127   414.7419 </r>
       <r>     4.0535    11.5056   415.5011 </r>
       <r>     4.1194    11.7957   416.2794 </r>
       <r>     4.1854    11.9611   417.0686 </r>
       <r>     4.2513    11.8058   417.8476 </r>
       <r>     4.3173    11.4192   418.6011 </r>
       <r>     4.3833    11.0678   419.3313 </r>
       <r>     4.4492    10.9645   420.0548 </r>
       <r>     4.5152    11.1396   420.7902 </r>
       <r>     4.5811    11.4650   421.5469 </r>
       <r>     4.6471    11.6993   422.3189 </r>
       <r>     4.7130    11.6481   423.0876 </r>
       <r>     4.7790    11.2869   423.8322 </r>
       <r>     4.8450    10.7470   424.5415 </r>
       <r>     4.9109    10.2273   425.2164 </r>
       <r>     4.9769     9.8977   425.8697 </r>
       <r>     5.0428     9.8308   426.5185 </r>
       <r>     5.1088     9.9192   427.1731 </r>
       <r>     5.1747    10.0275   427.8348 </r>
       <r>     5.2407    10.1583   428.5051 </r>
       <r>     5.3067    10.3656   429.1891 </r>
       <r>     5.3726    10.6296   429.8905 </r>
       <r>     5.4386    10.8650   430.6075 </r>
       <r>     5.5045    11.0072   431.3341 </r>
       <r>     5.5705    11.0186   432.0612 </r>
       <r>     5.6364    10.8139   432.7748 </r>
       <r>     5.7024    10.3191   433.4557 </r>
       <r>     5.7684     9.6011   434.0892 </r>
       <r>     5.8343     8.8133   434.6707 </r>
       <r>     5.9003     8.0535   435.2023 </r>
       <r>     5.9662     7.3604   435.6881 </r>
       <r>     6.0322     6.7733   436.1350 </r>
       <r>     6.0982     6.3258   436.5526 </r>
       <r>     6.1641     5.9753   436.9470 </r>
       <r>     6.2301     5.6267   437.3186 </r>
       <r>     6.2960     5.2864   437.6675 </r>
       <r>     6.3620     5.0477   438.0008 </r>
       <r>     6.4279     4.9264   438.3263 </r>
       <r>     6.4939     4.7871   438.6424 </r>
       <r>     6.5599     4.4879   438.9386 </r>
       <r>     6.6258     4.0277   439.2046 </r>
       <r>     6.6918     3.4690   439.4337 </r>
       <r>     6.7577     2.8332   439.6208 </r>
       <r>     6.8237     2.1433   439.7623 </r>
       <r>     6.8896     1.4782   439.8599 </r>
       <r>     6.9556     0.9300   439.9215 </r>
       <r>     7.0216     0.5429   439.9575 </r>
       <r>     7.0875     0.3009   439.9775 </r>
       <r>     7.1535     0.1618   439.9882 </r>
       <r>     7.2194     0.0842   439.9940 </r>
       <r>     7.2854     0.0421   439.9970 </r>
       <r>     7.3513     0.0205   439.9985 </r>
       <r>     7.4173     0.0102   439.9993 </r>
       <r>     7.4833     0.0044   439.9997 </r>
       <r>     7.5492     0.0013   439.9999 </r>
       <r>     7.6152     0.0000   440.0000 </r>
       <r>     7.6811     0.0000   440.0000 </r>
       <r>     7.7471     0.0000   440.0000 </r>
       <r>     7.8130     0.0000   440.0000 </r>
      </set>
     </set>
    </array>
   </total>
  </dos>
 </calculation>
 <structure name="finalpos" >
  <crystal>
   <varray name="basis" >
    <v>       8.42164176       0.00000000       0.00000000 </v>
    <v>       4.21082088       7.29335571       0.00000000 </v>
    <v>       0.00000000       0.00000000      21.87624171 </v>
   </varray>
   <i name="volume">   1343.68315334 </i>
   <varray name="rec_basis" >
    <v>       0.11874169      -0.06855555       0.00000000 </v>
    <v>       0.00000000       0.13711110       0.00000000 </v>
    <v>       0.00000000       0.00000000       0.04571169 </v>
   </varray>
  </crystal>
  <varray name="positions" >
   <v>       0.00000000       0.00000000       0.34283768 </v>
   <v>       0.33333333       0.00000000       0.34283768 </v>
   <v>       0.66666667       0.00000000       0.34283768 </v>
   <v>       0.00000000       0.33333333       0.34283768 </v>
   <v>       0.33333333       0.33333333       0.34283768 </v>
   <v>       0.66666667       0.33333333       0.34283768 </v>
   <v>       0.00000000       0.66666667       0.34283768 </v>
   <v>       0.33333333       0.66666667       0.34283768 </v>
   <v>       0.66666667       0.66666667       0.34283768 </v>
   <v>       0.11111111       0.11111111       0.44761256 </v>
   <v>       0.44444444       0.11111111       0.44761256 </v>
   <v>       0.77777778       0.11111111       0.44761256 </v>
   <v>       0.11111111       0.44444444       0.44761256 </v>
   <v>       0.44444444       0.44444444       0.44761256 </v>
   <v>       0.77777778       0.44444444       0.44761256 </v>
   <v>       0.11111111       0.77777778       0.44761256 </v>
   <v>       0.44444444       0.77777778       0.44761256 </v>
   <v>       0.77777778       0.77777778       0.44761256 </v>
   <v>       0.89066244       0.22135991       0.55083528 </v>
   <v>       0.22393181       0.22310650       0.55199432 </v>
   <v>       0.55592864       0.22143446       0.55250690 </v>
   <v>       0.89000229       0.55556716       0.55125181 </v>
   <v>       0.22397983       0.55200684       0.55300445 </v>
   <v>       0.55579777       0.55631476       0.55083341 </v>
   <v>       0.88637379       0.88952424       0.55303984 </v>
   <v>       0.22175210       0.88749662       0.55008214 </v>
   <v>       0.55727886       0.88969890       0.55198234 </v>
   <v>       0.00213814       0.99939619       0.65627260 </v>
   <v>       0.33094776       0.99526889       0.65417396 </v>
   <v>       0.66840920       0.00226880       0.66420355 </v>
   <v>       0.00308360       0.33423892       0.65638320 </v>
   <v>       0.33830544       0.33270607       0.66418967 </v>
   <v>       0.67375289       0.33752043       0.65478711 </v>
   <v>       0.00282872       0.66669848       0.65708710 </v>
   <v>       0.33570430       0.66610016       0.65625367 </v>
   <v>       0.66996470       0.66737644       0.65644398 </v>
   <v>       0.49879412       0.16293187       0.73265060 </v>
   <v>       0.56103555       0.22448420       0.76141965 </v>
   <v>       0.43506278       0.09957255       0.75972739 </v>
  </varray>
  <varray name="selective"  type="logical" >
   <v type="logical" >  F  F  F </v>
   <v type="logical" >  F  F  F </v>
   <v type="logical" >  F  F  F </v>
   <v type="logical" >  F  F  F </v>
   <v type="logical" >  F  F  F </v>
   <v type="logical" >  F  F  F </v>
   <v type="logical" >  F  F  F </v>
   <v type="logical" >  F  F  F </v>
   <v type="logical" >  F  F  F </v>
   <v type="logical" >  F  F  F </v>
   <v type="logical" >  F  F  F </v>
   <v type="logical" >  F  F  F </v>
   <v type="logical" >  F  F  F </v>
   <v type="logical" >  F  F  F </v>
   <v type="logical" >  F  F  F </v>
   <v type="logical" >  F  F  F </v>
   <v type="logical" >  F  F  F </v>
   <v type="logical" >  F  F  F </v>
   <v type="logical" >  T  T  T </v>
   <v type="logical" >  T  T  T </v>
   <v type="logical" >  T  T  T </v>
   <v type="logical" >  T  T  T </v>
   <v type="logical" >  T  T  T </v>
   <v type="logical" >  T  T  T </v>
   <v type="logical" >  T  T  T </v>
   <v type="logical" >  T  T  T </v>
   <v type="logical" >  T  T  T </v>
   <v type="logical" >  T  T  T </v>
   <v type="logical" >  T  T  T </v>
   <v type="logical" >  T  T  T </v>
   <v type="logical" >  T  T  T </v>
   <v type="logical" >  T  T  T </v>
   <v type="logical" >  T  T  T </v>
   <v type="logical" >  T  T  T </v>
   <v type="logical" >  T  T  T </v>
   <v type="logical" >  T  T  T </v>
   <v type="logical" >  T  T  T </v>
   <v type="logical" >  T  T  T </v>
   <v type="logical" >  T  T  T </v>
  </varray>
  <nose>
   <v>      -3.00000000       0.00000000       0.00010000       0.00010000 </v>
  </nose>
 </structure>
</modeling>
