unknown system                          
           1
     8.421642    0.000000    0.000000
     4.210821    7.293356    0.000000
     0.000000    0.000000   21.876242
   Pt   C    H 
  36   1   2
Direct configuration=     1
   0.00000000  0.00000000  0.34283768
   0.33333333  0.00000000  0.34283768
   0.66666667  0.00000000  0.34283768
   0.00000000  0.33333333  0.34283768
   0.33333333  0.33333333  0.34283768
   0.66666667  0.33333333  0.34283768
   0.00000000  0.66666667  0.34283768
   0.33333333  0.66666667  0.34283768
   0.66666667  0.66666667  0.34283768
   0.11111111  0.11111111  0.44761256
   0.44444444  0.11111111  0.44761256
   0.77777778  0.11111111  0.44761256
   0.11111111  0.44444444  0.44761256
   0.44444444  0.44444444  0.44761256
   0.77777778  0.44444444  0.44761256
   0.11111111  0.77777778  0.44761256
   0.44444444  0.77777778  0.44761256
   0.77777778  0.77777778  0.44761256
   0.89066244  0.22135991  0.55083528
   0.22393181  0.22310650  0.55199432
   0.55592864  0.22143446  0.55250690
   0.89000229  0.55556716  0.55125181
   0.22397983  0.55200684  0.55300445
   0.55579777  0.55631476  0.55083341
   0.88637379  0.88952424  0.55303984
   0.22175210  0.88749662  0.55008214
   0.55727886  0.88969890  0.55198234
   0.00213814  0.99939619  0.65627260
   0.33094776  0.99526889  0.65417396
   0.66840920  0.00226880  0.66420355
   0.00308360  0.33423892  0.65638320
   0.33830544  0.33270607  0.66418967
   0.67375289  0.33752043  0.65478711
   0.00282872  0.66669848  0.65708710
   0.33570430  0.66610016  0.65625367
   0.66996470  0.66737644  0.65644398
   0.49879412  0.16293187  0.73265060
   0.56103555  0.22448420  0.76141965
   0.43506278  0.09957255  0.75972739
