    6    6    1    1
  0.1333333E+04  0.2000000E-08  0.2000000E-08  0.2000000E-08  0.5000000E-15
  1.000000000000000E-004
  CAR 
 unknown system                          
     12      1     10
 
  0.0000000E+00  0.0000000E+00  0.0000000E+00  0.1000000E+01
    1      -18.774578   1.000000
    2      -14.193900   1.000000
    3      -11.428589   1.000000
    4      -10.141677   1.000000
    5       -8.478421   1.000000
    6       -6.748072   1.000000
    7       -1.072533   0.000000
    8       -0.324378   0.000000
    9        0.130044   0.000000
   10        0.169722   0.000000
