<?xml version="1.0" encoding="ISO-8859-1"?>
<modeling>
 <generator>
  <i name="program" type="string">vasp </i>
  <i name="version" type="string">5.4.1  </i>
  <i name="subversion" type="string">24Jun15 (build Oct 10 2016 12:42:00) complex                          parallel </i>
  <i name="platform" type="string">IFC91_ompi </i>
  <i name="date" type="string">2018 07 05 </i>
  <i name="time" type="string">19:40:58 </i>
 </generator>
 <incar>
  <i type="string" name="PREC">normal</i>
  <i type="string" name="ALGO"> fast</i>
  <i type="int" name="ISPIN">     1</i>
  <i type="int" name="NELMDL">    -4</i>
  <i type="int" name="NELMIN">     4</i>
  <i name="EDIFF">      0.00000100</i>
  <i name="ENCUT">    400.00000000</i>
  <i type="string" name="LREAL"> auto</i>
  <i type="int" name="ISMEAR">    -1</i>
  <i name="SIGMA">      0.10000000</i>
  <i type="logical" name="LWAVE"> F  </i>
  <i type="logical" name="LCHARG"> F  </i>
  <v type="int" name="KPOINT_BSE">    -1     0     0     0</v>
  <i type="string" name="GGA"> PE</i>
 </incar>
 <kpoints>
  <generation param="Monkhorst-Pack">
   <v type="int" name="divisions">       1        1        1 </v>
   <v name="usershift">      0.00000000       0.00000000       0.00000000 </v>
   <v name="genvec1">      1.00000000       0.00000000       0.00000000 </v>
   <v name="genvec2">      0.00000000       1.00000000       0.00000000 </v>
   <v name="genvec3">      0.00000000       0.00000000       1.00000000 </v>
   <v name="shift">      0.00000000       0.00000000       0.00000000 </v>
  </generation>
  <varray name="kpointlist" >
   <v>       0.00000000       0.00000000       0.00000000 </v>
  </varray>
  <varray name="weights" >
   <v>       1.00000000 </v>
  </varray>
 </kpoints>
 <parameters>
  <separator name="general" >
   <i type="string" name="SYSTEM">unknown system</i>
   <i type="logical" name="LCOMPAT"> F  </i>
  </separator>
  <separator name="electronic" >
   <i type="string" name="PREC">normal</i>
   <i name="ENMAX">    400.00000000</i>
   <i name="ENAUG">    644.87300000</i>
   <i name="EDIFF">      0.00000100</i>
   <i type="int" name="IALGO">    68</i>
   <i type="int" name="IWAVPR">    10</i>
   <i type="int" name="NBANDS">    10</i>
   <i name="NELECT">     12.00000000</i>
   <i type="int" name="TURBO">     0</i>
   <i type="int" name="IRESTART">     0</i>
   <i type="int" name="NREBOOT">     0</i>
   <i type="int" name="NMIN">     0</i>
   <i name="EREF">      0.00000000</i>
   <separator name="electronic smearing" >
    <i type="int" name="ISMEAR">    -1</i>
    <i name="SIGMA">      0.10000000</i>
    <i name="KSPACING">      0.50000000</i>
    <i type="logical" name="KGAMMA"> T  </i>
   </separator>
   <separator name="electronic projectors" >
    <i type="logical" name="LREAL"> T  </i>
    <v name="ROPT">     -0.00050000     -0.00050000</v>
    <i type="int" name="LMAXPAW">  -100</i>
    <i type="int" name="LMAXMIX">     2</i>
    <i type="logical" name="NLSPLINE"> F  </i>
   </separator>
   <separator name="electronic startup" >
    <i type="int" name="ISTART">     0</i>
    <i type="int" name="ICHARG">     2</i>
    <i type="int" name="INIWAV">     1</i>
   </separator>
   <separator name="electronic spin" >
    <i type="int" name="ISPIN">     1</i>
    <i type="logical" name="LNONCOLLINEAR"> F  </i>
    <v name="MAGMOM">      1.00000000      1.00000000      1.00000000      1.00000000      1.00000000      1.00000000</v>
    <i name="NUPDOWN">     -1.00000000</i>
    <i type="logical" name="LSORBIT"> F  </i>
    <v name="SAXIS">      0.00000000      0.00000000      1.00000000</v>
    <i type="logical" name="LSPIRAL"> F  </i>
    <v name="QSPIRAL">      0.00000000      0.00000000      0.00000000</v>
    <i type="logical" name="LZEROZ"> F  </i>
   </separator>
   <separator name="electronic exchange-correlation" >
    <i type="logical" name="LASPH"> F  </i>
    <i type="logical" name="LMETAGGA"> F  </i>
   </separator>
   <separator name="electronic convergence" >
    <i type="int" name="NELM">    60</i>
    <i type="int" name="NELMDL">    -4</i>
    <i type="int" name="NELMIN">     4</i>
    <i name="ENINI">    400.00000000</i>
    <separator name="electronic convergence detail" >
     <i type="logical" name="LDIAG"> T  </i>
     <i type="logical" name="LSUBROT"> F  </i>
     <i name="WEIMIN">      0.00000000</i>
     <i name="EBREAK">      0.00000002</i>
     <i name="DEPER">      0.30000000</i>
     <i type="int" name="NRMM">     4</i>
     <i name="TIME">      0.40000000</i>
    </separator>
   </separator>
   <separator name="electronic mixer" >
    <i name="AMIX">      0.40000000</i>
    <i name="BMIX">      1.00000000</i>
    <i name="AMIN">      0.10000000</i>
    <i name="AMIX_MAG">      1.60000000</i>
    <i name="BMIX_MAG">      1.00000000</i>
    <separator name="electronic mixer details" >
     <i type="int" name="IMIX">     4</i>
     <i type="logical" name="MIXFIRST"> F  </i>
     <i type="int" name="MAXMIX">   -45</i>
     <i name="WC">    100.00000000</i>
     <i type="int" name="INIMIX">     1</i>
     <i type="int" name="MIXPRE">     1</i>
     <i type="int" name="MREMOVE">     5</i>
    </separator>
   </separator>
   <separator name="electronic dipolcorrection" >
    <i type="logical" name="LDIPOL"> F  </i>
    <i type="logical" name="LMONO"> F  </i>
    <i type="int" name="IDIPOL">     0</i>
    <i name="EPSILON">      1.00000000</i>
    <v name="DIPOL">   -100.00000000   -100.00000000   -100.00000000</v>
    <i name="EFIELD">      0.00000000</i>
   </separator>
  </separator>
  <separator name="grids" >
   <i type="int" name="NGX">    98</i>
   <i type="int" name="NGY">    98</i>
   <i type="int" name="NGZ">    98</i>
   <i type="int" name="NGXF">   196</i>
   <i type="int" name="NGYF">   196</i>
   <i type="int" name="NGZF">   196</i>
   <i type="logical" name="ADDGRID"> F  </i>
  </separator>
  <separator name="ionic" >
   <i type="int" name="NSW">     0</i>
   <i type="int" name="IBRION">    -1</i>
   <i type="int" name="ISIF">     2</i>
   <i name="PSTRESS">      0.00000000</i>
   <i name="EDIFFG">      0.00001000</i>
   <i type="int" name="NFREE">     0</i>
   <i name="POTIM">      0.50000000</i>
   <i name="SMASS">     -3.00000000</i>
   <i name="SCALEE">      1.00000000</i>
  </separator>
  <separator name="ionic md" >
   <i name="TEBEG">      0.00010000</i>
   <i name="TEEND">      0.00010000</i>
   <i type="int" name="NBLOCK">     1</i>
   <i type="int" name="KBLOCK">     1</i>
   <i type="int" name="NPACO">   256</i>
   <i name="APACO">     16.00000000</i>
  </separator>
  <separator name="symmetry" >
   <i type="int" name="ISYM">     2</i>
   <i name="SYMPREC">      0.00001000</i>
  </separator>
  <separator name="dos" >
   <i type="logical" name="LORBIT"> F  </i>
   <v name="RWIGS">     -1.00000000     -1.00000000</v>
   <i type="int" name="NEDOS">   301</i>
   <i name="EMIN">     10.00000000</i>
   <i name="EMAX">    -10.00000000</i>
   <i name="EFERMI">      0.00000000</i>
  </separator>
  <separator name="writing" >
   <i type="int" name="NWRITE">     2</i>
   <i type="logical" name="LWAVE"> F  </i>
   <i type="logical" name="LCHARG"> F  </i>
   <i type="logical" name="LPARD"> F  </i>
   <i type="logical" name="LVTOT"> F  </i>
   <i type="logical" name="LVHAR"> F  </i>
   <i type="logical" name="LELF"> F  </i>
   <i type="logical" name="LOPTICS"> F  </i>
   <v name="STM">      0.00000000      0.00000000      0.00000000      0.00000000      0.00000000      0.00000000      0.00000000</v>
  </separator>
  <separator name="performance" >
   <i type="int" name="NPAR">     5</i>
   <i type="int" name="NSIM">     4</i>
   <i type="int" name="NBLK">    -1</i>
   <i type="logical" name="LPLANE"> T  </i>
   <i type="logical" name="LSCALAPACK"> T  </i>
   <i type="logical" name="LSCAAWARE"> F  </i>
   <i type="logical" name="LSCALU"> F  </i>
   <i type="logical" name="LASYNC"> F  </i>
   <i type="logical" name="LORBITALREAL"> F  </i>
  </separator>
  <separator name="miscellaneous" >
   <i type="int" name="IDIOT">     3</i>
   <i type="logical" name="LMUSIC"> F  </i>
   <v name="POMASS">     12.01100000      1.00000000</v>
   <v name="DARWINR">      0.00000000      0.00000000</v>
   <v name="DARWINV">      1.00000000      1.00000000</v>
   <i type="logical" name="LCORR"> T  </i>
  </separator>
  <i type="logical" name="GGA_COMPAT"> T  </i>
  <i type="logical" name="LBERRY"> F  </i>
  <i type="int" name="ICORELEVEL">     0</i>
  <i type="logical" name="LDAU"> F  </i>
  <i type="int" name="I_CONSTRAINED_M">     0</i>
  <separator name="electronic exchange-correlation" >
   <i type="string" name="GGA">PE</i>
   <i type="int" name="VOSKOWN">     0</i>
   <i type="logical" name="LHFCALC"> F  </i>
   <i type="string" name="PRECFOCK"></i>
   <i type="logical" name="LSYMGRAD"> F  </i>
   <i type="logical" name="LHFONE"> F  </i>
   <i type="logical" name="LRHFCALC"> F  </i>
   <i type="logical" name="LTHOMAS"> F  </i>
   <i type="logical" name="LMODELHF"> F  </i>
   <i name="ENCUT4O">     -1.00000000</i>
   <i type="int" name="EXXOEP">     0</i>
   <i type="int" name="FOURORBIT">     0</i>
   <i name="AEXX">      0.00000000</i>
   <i name="HFALPHA">      0.00000000</i>
   <i name="MCALPHA">      0.00000000</i>
   <i name="ALDAX">      1.00000000</i>
   <i name="AGGAX">      1.00000000</i>
   <i name="ALDAC">      1.00000000</i>
   <i name="AGGAC">      1.00000000</i>
   <i type="int" name="NKREDX">     1</i>
   <i type="int" name="NKREDY">     1</i>
   <i type="int" name="NKREDZ">     1</i>
   <i type="logical" name="SHIFTRED"> F  </i>
   <i type="logical" name="ODDONLY"> F  </i>
   <i type="logical" name="EVENONLY"> F  </i>
   <i type="int" name="LMAXFOCK">     0</i>
   <i type="int" name="NMAXFOCKAE">     0</i>
   <i type="logical" name="LFOCKAEDFT"> F  </i>
   <i name="HFSCREEN">      0.00000000</i>
   <i name="HFSCREENC">      0.00000000</i>
   <i type="int" name="NBANDSGWLOW">     0</i>
  </separator>
  <separator name="vdW DFT" >
   <i type="logical" name="LUSE_VDW"> F  </i>
   <i name="Zab_VDW">     -0.84910000</i>
   <i name="PARAM1">      0.12340000</i>
   <i name="PARAM2">      1.00000000</i>
   <i name="PARAM3">      0.00000000</i>
  </separator>
  <separator name="model GW" >
   <i type="int" name="MODEL_GW">     0</i>
   <i name="MODEL_EPS0">    800.00000000</i>
   <i name="MODEL_ALPHA">      1.00000000</i>
  </separator>
  <separator name="linear response parameters" >
   <i type="logical" name="LEPSILON"> F  </i>
   <i type="logical" name="LRPA"> F  </i>
   <i type="logical" name="LNABLA"> F  </i>
   <i type="logical" name="LVEL"> F  </i>
   <i type="int" name="KINTER">     0</i>
   <i name="CSHIFT">      0.10000000</i>
   <i name="OMEGAMAX">     -1.00000000</i>
   <i name="DEG_THRESHOLD">      0.00200000</i>
  </separator>
  <separator name="orbital magnetization" >
   <i type="logical" name="NUCIND"> F  </i>
   <v name="MAGPOS">      0.00000000      0.00000000      0.00000000</v>
   <i type="logical" name="LNICSALL"> T  </i>
   <i type="logical" name="ORBITALMAG"> F  </i>
   <i type="logical" name="LMAGBLOCH"> F  </i>
   <i type="logical" name="LCHIMAG"> F  </i>
   <i type="logical" name="LGAUGE"> T  </i>
   <i type="int" name="MAGATOM">     0</i>
   <v name="MAGDIPOL">      0.00000000      0.00000000      0.00000000</v>
   <v name="AVECCONST">      0.00000000      0.00000000      0.00000000</v>
  </separator>
  <separator name="response functions" >
   <i type="logical" name="LADDER"> F  </i>
   <i type="logical" name="LFXC"> F  </i>
   <i type="logical" name="LHARTREE"> T  </i>
   <i type="int" name="IBSE">     0</i>
   <v type="int" name="KPOINT">    -1     0     0     0</v>
   <i type="logical" name="LTCTE"> F  </i>
   <i type="logical" name="LTETE"> F  </i>
   <i type="logical" name="LTRIPLET"> F  </i>
   <i type="logical" name="LFXCEPS"> F  </i>
   <i type="logical" name="LFXHEG"> F  </i>
   <i type="int" name="NATURALO">     0</i>
   <i type="logical" name="L2ORDER"> F  </i>
   <i type="logical" name="LUSEW"> F  </i>
   <i name="ENCUTGW">     -2.00000000</i>
   <i name="ENCUTGWSOFT">     -2.00000000</i>
   <i name="ENCUTLF">     -1.00000000</i>
   <i type="int" name="LMAXMP2">    -1</i>
   <i name="SCISSOR">      0.00000000</i>
   <i type="int" name="NOMEGA">     0</i>
   <i type="int" name="NOMEGAR">     0</i>
   <i type="int" name="NBANDSGW">    -1</i>
   <i type="int" name="NBANDSO">    -1</i>
   <i type="int" name="NBANDSV">    -1</i>
   <i type="int" name="NELM">     1</i>
   <i type="int" name="NELMHF">     1</i>
   <i type="int" name="DIM">     3</i>
   <i type="int" name="ANTIRES">     0</i>
   <i name="OMEGAMAX">    -30.00000000</i>
   <i name="OMEGAMIN">    -30.00000000</i>
   <i name="OMEGATL">   -200.00000000</i>
   <i type="int" name="OMEGAGRID">     0</i>
   <i name="CSHIFT">     -0.10000000</i>
   <i type="logical" name="SELFENERGY"> F  </i>
   <i type="logical" name="LSPECTRAL"> F  </i>
   <i type="logical" name="LSPECTRALGW"> F  </i>
   <i type="logical" name="LSINGLES"> F  </i>
   <i type="logical" name="LFERMIGW"> F  </i>
   <i type="logical" name="ODDONLYGW"> F  </i>
   <i type="logical" name="EVENONLYGW"> F  </i>
   <i type="int" name="NKREDLFX">     1</i>
   <i type="int" name="NKREDLFY">     1</i>
   <i type="int" name="NKREDLFZ">     1</i>
   <i type="int" name="MAXMEM">  1800</i>
   <i type="int" name="TELESCOPE">     0</i>
   <i type="int" name="TAUPAR">     1</i>
   <i type="int" name="OMEGAPAR">    -1</i>
   <i name="LAMBDA">      1.00000000</i>
  </separator>
  <separator name="External order field" >
   <i name="OFIELD_KAPPA">      0.00000000</i>
   <v name="OFIELD_K">      0.00000000      0.00000000      0.00000000</v>
   <i name="OFIELD_Q6_NEAR">      0.00000000</i>
   <i name="OFIELD_Q6_FAR">      0.00000000</i>
   <i name="OFIELD_A">      0.00000000</i>
  </separator>
 </parameters>
 <atominfo>
  <atoms>       6 </atoms>
  <types>       2 </types>
  <array name="atoms" >
   <dimension dim="1">ion</dimension>
   <field type="string">element</field>
   <field type="int">atomtype</field>
   <set>
    <rc><c>C </c><c>   1</c></rc>
    <rc><c>C </c><c>   1</c></rc>
    <rc><c>H </c><c>   2</c></rc>
    <rc><c>H </c><c>   2</c></rc>
    <rc><c>H </c><c>   2</c></rc>
    <rc><c>H </c><c>   2</c></rc>
   </set>
  </array>
  <array name="atomtypes" >
   <dimension dim="1">type</dimension>
   <field type="int">atomspertype</field>
   <field type="string">element</field>
   <field>mass</field>
   <field>valence</field>
   <field type="string">pseudopotential</field>
   <set>
    <rc><c>   2</c><c>C </c><c>     12.01100000</c><c>      4.00000000</c><c>  PAW_PBE C 08Apr2002                   </c></rc>
    <rc><c>   4</c><c>H </c><c>      1.00000000</c><c>      1.00000000</c><c>  PAW_PBE H 15Jun2001                   </c></rc>
   </set>
  </array>
 </atominfo>
 <structure name="initialpos" >
  <crystal>
   <varray name="basis" >
    <v>      20.00000000       0.00000000       0.00000000 </v>
    <v>       0.00000000      20.00000000       0.00000000 </v>
    <v>       0.00000000       0.00000000      20.00000000 </v>
   </varray>
   <i name="volume">   8000.00000000 </i>
   <varray name="rec_basis" >
    <v>       0.05000000       0.00000000       0.00000000 </v>
    <v>       0.00000000       0.05000000       0.00000000 </v>
    <v>       0.00000000       0.00000000       0.05000000 </v>
   </varray>
  </crystal>
  <varray name="positions" >
   <v>       0.50000000       0.50000000       0.53332525 </v>
   <v>       0.50000000       0.50000000       0.46667475 </v>
   <v>       0.50000000       0.54643769       0.56204029 </v>
   <v>       0.50000000       0.45356231       0.56204029 </v>
   <v>       0.50000000       0.54643769       0.43795971 </v>
   <v>       0.50000000       0.45356231       0.43845971 </v>
  </varray>
 </structure>
 <calculation>
  <scstep>
   <time name="dav">    0.55    0.55</time>
   <time name="total">    1.75    1.85</time>
   <energy>
    <i name="alphaZ">      0.07622704 </i>
    <i name="ewald">    382.75406980 </i>
    <i name="hartreedc">   -597.03642034 </i>
    <i name="XCdc">     34.48860977 </i>
    <i name="pawpsdc">    225.58020250 </i>
    <i name="pawaedc">   -226.75452526 </i>
    <i name="eentropy">     -0.00000267 </i>
    <i name="bandstr">   -126.45126342 </i>
    <i name="atom">    344.16897840 </i>
    <i name="e_fr_energy">     36.82587583 </i>
    <i name="e_wo_entrp">     36.82587850 </i>
    <i name="e_0_energy">     36.82587716 </i>
   </energy>
  </scstep>
  <scstep>
   <time name="dav">    0.38    0.38</time>
   <time name="total">    0.38    0.38</time>
   <energy>
    <i name="e_fr_energy">    -28.12619553 </i>
    <i name="e_wo_entrp">    -28.12619553 </i>
    <i name="e_0_energy">    -28.12619553 </i>
   </energy>
  </scstep>
  <scstep>
   <time name="dav">    0.28    0.28</time>
   <time name="total">    0.28    0.28</time>
   <energy>
    <i name="e_fr_energy">    -35.89808784 </i>
    <i name="e_wo_entrp">    -35.89808784 </i>
    <i name="e_0_energy">    -35.89808784 </i>
   </energy>
  </scstep>
  <scstep>
   <time name="dav">    0.53    0.53</time>
   <time name="total">    0.69    0.69</time>
   <energy>
    <i name="e_fr_energy">    -36.10247035 </i>
    <i name="e_wo_entrp">    -36.10247035 </i>
    <i name="e_0_energy">    -36.10247035 </i>
   </energy>
  </scstep>
  <scstep>
   <time name="diag">    0.07    0.07</time>
   <time name="diis">    0.38    0.38</time>
   <time name="orth">    0.01    0.01</time>
   <time name="total">    1.05    1.05</time>
   <energy>
    <i name="e_fr_energy">    -32.81155133 </i>
    <i name="e_wo_entrp">    -32.81155133 </i>
    <i name="e_0_energy">    -32.81155133 </i>
   </energy>
  </scstep>
  <scstep>
   <time name="diag">    0.07    0.07</time>
   <time name="diis">    0.37    0.37</time>
   <time name="orth">    0.01    0.01</time>
   <time name="total">    1.05    1.05</time>
   <energy>
    <i name="e_fr_energy">    -32.06831290 </i>
    <i name="e_wo_entrp">    -32.06831290 </i>
    <i name="e_0_energy">    -32.06831290 </i>
   </energy>
  </scstep>
  <scstep>
   <time name="diag">    0.07    0.07</time>
   <time name="diis">    0.37    0.37</time>
   <time name="orth">    0.18    0.18</time>
   <time name="total">    1.21    1.21</time>
   <energy>
    <i name="e_fr_energy">    -31.96518259 </i>
    <i name="e_wo_entrp">    -31.96518259 </i>
    <i name="e_0_energy">    -31.96518259 </i>
   </energy>
  </scstep>
  <scstep>
   <time name="diag">    0.07    0.07</time>
   <time name="diis">    0.40    0.40</time>
   <time name="orth">    0.14    0.14</time>
   <time name="total">    1.19    1.20</time>
   <energy>
    <i name="e_fr_energy">    -31.96011677 </i>
    <i name="e_wo_entrp">    -31.96011677 </i>
    <i name="e_0_energy">    -31.96011677 </i>
   </energy>
  </scstep>
  <scstep>
   <time name="diag">    0.07    0.07</time>
   <time name="diis">    0.29    0.29</time>
   <time name="orth">    0.01    0.01</time>
   <time name="total">    1.04    1.04</time>
   <energy>
    <i name="e_fr_energy">    -31.95754031 </i>
    <i name="e_wo_entrp">    -31.95754031 </i>
    <i name="e_0_energy">    -31.95754031 </i>
   </energy>
  </scstep>
  <scstep>
   <time name="diag">    0.07    0.07</time>
   <time name="diis">    0.33    0.33</time>
   <time name="orth">    0.01    0.01</time>
   <time name="total">    1.01    1.01</time>
   <energy>
    <i name="e_fr_energy">    -31.95771563 </i>
    <i name="e_wo_entrp">    -31.95771563 </i>
    <i name="e_0_energy">    -31.95771563 </i>
   </energy>
  </scstep>
  <scstep>
   <time name="diag">    0.07    0.07</time>
   <time name="diis">    0.28    0.28</time>
   <time name="orth">    0.01    0.01</time>
   <time name="total">    1.02    1.02</time>
   <energy>
    <i name="e_fr_energy">    -31.96382326 </i>
    <i name="e_wo_entrp">    -31.96382326 </i>
    <i name="e_0_energy">    -31.96382326 </i>
   </energy>
  </scstep>
  <scstep>
   <time name="diag">    0.07    0.07</time>
   <time name="diis">    0.37    0.37</time>
   <time name="orth">    0.01    0.01</time>
   <time name="total">    1.10    1.10</time>
   <energy>
    <i name="e_fr_energy">    -31.96546700 </i>
    <i name="e_wo_entrp">    -31.96546700 </i>
    <i name="e_0_energy">    -31.96546700 </i>
   </energy>
  </scstep>
  <scstep>
   <time name="diag">    0.07    0.07</time>
   <time name="diis">    0.28    0.28</time>
   <time name="orth">    0.01    0.01</time>
   <time name="total">    1.00    1.01</time>
   <energy>
    <i name="e_fr_energy">    -31.97003443 </i>
    <i name="e_wo_entrp">    -31.97003442 </i>
    <i name="e_0_energy">    -31.97003443 </i>
   </energy>
  </scstep>
  <scstep>
   <time name="diag">    0.08    0.08</time>
   <time name="diis">    0.37    0.37</time>
   <time name="orth">    0.01    0.01</time>
   <time name="total">    1.10    1.10</time>
   <energy>
    <i name="e_fr_energy">    -31.97040057 </i>
    <i name="e_wo_entrp">    -31.97040057 </i>
    <i name="e_0_energy">    -31.97040057 </i>
   </energy>
  </scstep>
  <scstep>
   <time name="diag">    0.12    0.12</time>
   <time name="diis">    0.28    0.28</time>
   <time name="orth">    0.01    0.01</time>
   <time name="total">    1.02    1.02</time>
   <energy>
    <i name="e_fr_energy">    -31.97105358 </i>
    <i name="e_wo_entrp">    -31.97105358 </i>
    <i name="e_0_energy">    -31.97105358 </i>
   </energy>
  </scstep>
  <scstep>
   <time name="diag">    0.07    0.07</time>
   <time name="diis">    0.30    0.30</time>
   <time name="orth">    0.01    0.01</time>
   <time name="total">    0.99    0.99</time>
   <energy>
    <i name="e_fr_energy">    -31.97123456 </i>
    <i name="e_wo_entrp">    -31.97123456 </i>
    <i name="e_0_energy">    -31.97123456 </i>
   </energy>
  </scstep>
  <scstep>
   <time name="diag">    0.07    0.07</time>
   <time name="diis">    0.37    0.37</time>
   <time name="orth">    0.01    0.01</time>
   <time name="total">    1.06    1.06</time>
   <energy>
    <i name="e_fr_energy">    -31.97141404 </i>
    <i name="e_wo_entrp">    -31.97141404 </i>
    <i name="e_0_energy">    -31.97141404 </i>
   </energy>
  </scstep>
  <scstep>
   <time name="diag">    0.07    0.07</time>
   <time name="diis">    0.32    0.32</time>
   <time name="orth">    0.01    0.01</time>
   <time name="total">    1.05    1.05</time>
   <energy>
    <i name="e_fr_energy">    -31.97142737 </i>
    <i name="e_wo_entrp">    -31.97142737 </i>
    <i name="e_0_energy">    -31.97142737 </i>
   </energy>
  </scstep>
  <scstep>
   <time name="diag">    0.07    0.07</time>
   <time name="diis">    0.30    0.30</time>
   <time name="orth">    0.01    0.01</time>
   <time name="total">    1.04    1.04</time>
   <energy>
    <i name="e_fr_energy">    -31.97147162 </i>
    <i name="e_wo_entrp">    -31.97147162 </i>
    <i name="e_0_energy">    -31.97147162 </i>
   </energy>
  </scstep>
  <scstep>
   <time name="diag">    0.07    0.07</time>
   <time name="diis">    0.31    0.31</time>
   <time name="orth">    0.01    0.01</time>
   <time name="total">    1.02    1.02</time>
   <energy>
    <i name="e_fr_energy">    -31.97147345 </i>
    <i name="e_wo_entrp">    -31.97147345 </i>
    <i name="e_0_energy">    -31.97147345 </i>
   </energy>
  </scstep>
  <scstep>
   <time name="diag">    0.07    0.07</time>
   <time name="diis">    0.30    0.30</time>
   <time name="orth">    0.01    0.01</time>
   <time name="total">    1.04    1.04</time>
   <energy>
    <i name="e_fr_energy">    -31.97148079 </i>
    <i name="e_wo_entrp">    -31.97148079 </i>
    <i name="e_0_energy">    -31.97148079 </i>
   </energy>
  </scstep>
  <scstep>
   <time name="diag">    0.07    0.07</time>
   <time name="diis">    0.28    0.28</time>
   <time name="orth">    0.01    0.01</time>
   <time name="total">    0.83    0.84</time>
   <energy>
    <i name="alphaZ">      0.07622704 </i>
    <i name="ewald">    382.75406980 </i>
    <i name="hartreedc">   -655.87424882 </i>
    <i name="XCdc">     37.89839813 </i>
    <i name="pawpsdc">    857.95355992 </i>
    <i name="pawaedc">   -859.41799098 </i>
    <i name="eentropy">     -0.00000000 </i>
    <i name="bandstr">   -139.53047510 </i>
    <i name="atom">    344.16897840 </i>
    <i name="e_fr_energy">    -31.97148159 </i>
    <i name="e_wo_entrp">    -31.97148159 </i>
    <i name="e_0_energy">    -31.97148159 </i>
   </energy>
  </scstep>
  <structure>
   <crystal>
    <varray name="basis" >
     <v>      20.00000000       0.00000000       0.00000000 </v>
     <v>       0.00000000      20.00000000       0.00000000 </v>
     <v>       0.00000000       0.00000000      20.00000000 </v>
    </varray>
    <i name="volume">   8000.00000000 </i>
    <varray name="rec_basis" >
     <v>       0.05000000       0.00000000       0.00000000 </v>
     <v>       0.00000000       0.05000000       0.00000000 </v>
     <v>       0.00000000       0.00000000       0.05000000 </v>
    </varray>
   </crystal>
   <varray name="positions" >
    <v>       0.50000000       0.50000000       0.53332525 </v>
    <v>       0.50000000       0.50000000       0.46667475 </v>
    <v>       0.50000000       0.54643769       0.56204029 </v>
    <v>       0.50000000       0.45356231       0.56204029 </v>
    <v>       0.50000000       0.54643769       0.43795971 </v>
    <v>       0.50000000       0.45356231       0.43845971 </v>
   </varray>
  </structure>
  <varray name="forces" >
   <v>       0.00000000       0.02784790       0.00320920 </v>
   <v>       0.00000000       0.11369315       0.12806401 </v>
   <v>       0.00000000       0.01173915       0.01026884 </v>
   <v>       0.00000000      -0.01252026       0.00437548 </v>
   <v>       0.00000000      -0.00037475      -0.01377917 </v>
   <v>       0.00000000      -0.14038519      -0.13213836 </v>
  </varray>
  <varray name="stress" >
   <v>      -0.10987882       0.00000000       0.00000000 </v>
   <v>       0.00000000      -0.06496508       0.02283668 </v>
   <v>       0.00000000       0.02283668      -0.06390179 </v>
  </varray>
  <energy>
   <i name="e_fr_energy">    -31.97148159 </i>
   <i name="e_wo_entrp">    -31.97148159 </i>
   <i name="e_0_energy">     -0.00000000 </i>
  </energy>
  <time name="totalsc">   25.18   25.64</time>
  <eigenvalues>
   <array>
    <dimension dim="1">band</dimension>
    <dimension dim="2">kpoint</dimension>
    <dimension dim="3">spin</dimension>
    <field>eigene</field>
    <field>occ</field>
    <set>
     <set comment="spin 1">
      <set comment="kpoint 1">
       <r>  -18.7746    1.0000 </r>
       <r>  -14.1939    1.0000 </r>
       <r>  -11.4286    1.0000 </r>
       <r>  -10.1417    1.0000 </r>
       <r>   -8.4784    1.0000 </r>
       <r>   -6.7481    1.0000 </r>
       <r>   -1.0725    0.0000 </r>
       <r>   -0.3244    0.0000 </r>
       <r>    0.1300    0.0000 </r>
       <r>    0.1697    0.0000 </r>
      </set>
     </set>
    </set>
   </array>
  </eigenvalues>
  <separator name="orbital magnetization" >
   <v name="MAGDIPOLOUT">      0.00000000      0.00000000      0.00000000</v>
  </separator>
  <dos>
   <i name="efermi">     -4.34561065 </i>
   <total>
    <array>
     <dimension dim="1">gridpoints</dimension>
     <dimension dim="2">spin</dimension>
     <field>energy</field>
     <field>total</field>
     <field>integrated</field>
     <set>
      <set comment="spin 1">
       <r>   -19.7746     0.0000     0.0000 </r>
       <r>   -19.7048     0.0000     0.0000 </r>
       <r>   -19.6349     0.0053     0.0004 </r>
       <r>   -19.5651     0.0053     0.0007 </r>
       <r>   -19.4953     0.0107     0.0015 </r>
       <r>   -19.4255     0.0214     0.0030 </r>
       <r>   -19.3557     0.0429     0.0060 </r>
       <r>   -19.2859     0.0859     0.0120 </r>
       <r>   -19.2161     0.1710     0.0239 </r>
       <r>   -19.1462     0.3376     0.0475 </r>
       <r>   -19.0764     0.6548     0.0932 </r>
       <r>   -19.0066     1.2276     0.1789 </r>
       <r>   -18.9368     2.1613     0.3298 </r>
       <r>   -18.8670     3.4155     0.5682 </r>
       <r>   -18.7972     4.5728     0.8875 </r>
       <r>   -18.7274     4.9317     1.2318 </r>
       <r>   -18.6575     4.2199     1.5264 </r>
       <r>   -18.5877     2.9530     1.7326 </r>
       <r>   -18.5179     1.7877     1.8574 </r>
       <r>   -18.4481     0.9889     1.9264 </r>
       <r>   -18.3783     0.5199     1.9627 </r>
       <r>   -18.3085     0.2660     1.9813 </r>
       <r>   -18.2387     0.1342     1.9906 </r>
       <r>   -18.1688     0.0673     1.9953 </r>
       <r>   -18.0990     0.0336     1.9977 </r>
       <r>   -18.0292     0.0167     1.9988 </r>
       <r>   -17.9594     0.0000     2.0000 </r>
       <r>   -17.8896     0.0000     2.0000 </r>
       <r>   -17.8198     0.0000     2.0000 </r>
       <r>   -17.7500     0.0000     2.0000 </r>
       <r>   -17.6801     0.0000     2.0000 </r>
       <r>   -17.6103     0.0000     2.0000 </r>
       <r>   -17.5405     0.0000     2.0000 </r>
       <r>   -17.4707     0.0000     2.0000 </r>
       <r>   -17.4009     0.0000     2.0000 </r>
       <r>   -17.3311     0.0000     2.0000 </r>
       <r>   -17.2613     0.0000     2.0000 </r>
       <r>   -17.1914     0.0000     2.0000 </r>
       <r>   -17.1216     0.0000     2.0000 </r>
       <r>   -17.0518     0.0000     2.0000 </r>
       <r>   -16.9820     0.0000     2.0000 </r>
       <r>   -16.9122     0.0000     2.0000 </r>
       <r>   -16.8424     0.0000     2.0000 </r>
       <r>   -16.7726     0.0000     2.0000 </r>
       <r>   -16.7027     0.0000     2.0000 </r>
       <r>   -16.6329     0.0000     2.0000 </r>
       <r>   -16.5631     0.0000     2.0000 </r>
       <r>   -16.4933     0.0000     2.0000 </r>
       <r>   -16.4235     0.0000     2.0000 </r>
       <r>   -16.3537     0.0000     2.0000 </r>
       <r>   -16.2839     0.0000     2.0000 </r>
       <r>   -16.2140     0.0000     2.0000 </r>
       <r>   -16.1442     0.0000     2.0000 </r>
       <r>   -16.0744     0.0000     2.0000 </r>
       <r>   -16.0046     0.0000     2.0000 </r>
       <r>   -15.9348     0.0000     2.0000 </r>
       <r>   -15.8650     0.0000     2.0000 </r>
       <r>   -15.7952     0.0000     2.0000 </r>
       <r>   -15.7253     0.0000     2.0000 </r>
       <r>   -15.6555     0.0000     2.0000 </r>
       <r>   -15.5857     0.0000     2.0000 </r>
       <r>   -15.5159     0.0000     2.0000 </r>
       <r>   -15.4461     0.0000     2.0000 </r>
       <r>   -15.3763     0.0000     2.0000 </r>
       <r>   -15.3065     0.0000     2.0000 </r>
       <r>   -15.2366     0.0000     2.0000 </r>
       <r>   -15.1668     0.0000     2.0000 </r>
       <r>   -15.0970     0.0000     2.0000 </r>
       <r>   -15.0272     0.0069     2.0005 </r>
       <r>   -14.9574     0.0070     2.0010 </r>
       <r>   -14.8876     0.0140     2.0019 </r>
       <r>   -14.8178     0.0280     2.0039 </r>
       <r>   -14.7479     0.0562     2.0078 </r>
       <r>   -14.6781     0.1122     2.0157 </r>
       <r>   -14.6083     0.2229     2.0312 </r>
       <r>   -14.5385     0.4377     2.0618 </r>
       <r>   -14.4687     0.8399     2.1204 </r>
       <r>   -14.3989     1.5433     2.2282 </r>
       <r>   -14.3291     2.6221     2.4112 </r>
       <r>   -14.2592     3.9133     2.6844 </r>
       <r>   -14.1894     4.8402     3.0223 </r>
       <r>   -14.1196     4.7682     3.3552 </r>
       <r>   -14.0498     3.7526     3.6172 </r>
       <r>   -13.9800     2.4649     3.7893 </r>
       <r>   -13.9102     1.4326     3.8893 </r>
       <r>   -13.8404     0.7741     3.9434 </r>
       <r>   -13.7705     0.4019     3.9714 </r>
       <r>   -13.7007     0.2043     3.9857 </r>
       <r>   -13.6309     0.1027     3.9928 </r>
       <r>   -13.5611     0.0514     3.9964 </r>
       <r>   -13.4913     0.0256     3.9982 </r>
       <r>   -13.4215     0.0128     3.9991 </r>
       <r>   -13.3517     0.0000     4.0000 </r>
       <r>   -13.2818     0.0000     4.0000 </r>
       <r>   -13.2120     0.0000     4.0000 </r>
       <r>   -13.1422     0.0000     4.0000 </r>
       <r>   -13.0724     0.0000     4.0000 </r>
       <r>   -13.0026     0.0000     4.0000 </r>
       <r>   -12.9328     0.0000     4.0000 </r>
       <r>   -12.8630     0.0000     4.0000 </r>
       <r>   -12.7931     0.0000     4.0000 </r>
       <r>   -12.7233     0.0000     4.0000 </r>
       <r>   -12.6535     0.0000     4.0000 </r>
       <r>   -12.5837     0.0000     4.0000 </r>
       <r>   -12.5139     0.0000     4.0000 </r>
       <r>   -12.4441     0.0000     4.0000 </r>
       <r>   -12.3743     0.0000     4.0000 </r>
       <r>   -12.3044     0.0000     4.0000 </r>
       <r>   -12.2346     0.0090     4.0006 </r>
       <r>   -12.1648     0.0091     4.0013 </r>
       <r>   -12.0950     0.0183     4.0025 </r>
       <r>   -12.0252     0.0368     4.0051 </r>
       <r>   -11.9554     0.0736     4.0103 </r>
       <r>   -11.8856     0.1469     4.0205 </r>
       <r>   -11.8157     0.2907     4.0408 </r>
       <r>   -11.7459     0.5666     4.0804 </r>
       <r>   -11.6761     1.0723     4.1552 </r>
       <r>   -11.6063     1.9208     4.2893 </r>
       <r>   -11.5365     3.1237     4.5074 </r>
       <r>   -11.4667     4.3609     4.8119 </r>
       <r>   -11.3969     4.9486     5.1573 </r>
       <r>   -11.3270     4.4523     5.4682 </r>
       <r>   -11.2572     3.2433     5.6946 </r>
       <r>   -11.1874     2.0172     5.8354 </r>
       <r>   -11.1176     1.1339     5.9146 </r>
       <r>   -11.0478     0.6013     5.9566 </r>
       <r>   -10.9780     0.3158     5.9786 </r>
       <r>   -10.9082     0.1631     5.9900 </r>
       <r>   -10.8383     0.0920     5.9964 </r>
       <r>   -10.7685     0.0664     6.0011 </r>
       <r>   -10.6987     0.0741     6.0062 </r>
       <r>   -10.6289     0.1187     6.0145 </r>
       <r>   -10.5591     0.2165     6.0303 </r>
       <r>   -10.4893     0.4254     6.0600 </r>
       <r>   -10.4195     0.8173     6.1171 </r>
       <r>   -10.3496     1.5055     6.2222 </r>
       <r>   -10.2798     2.5690     6.4015 </r>
       <r>   -10.2100     3.8601     6.6710 </r>
       <r>   -10.1402     4.8180     7.0074 </r>
       <r>   -10.0704     4.7942     7.3421 </r>
       <r>   -10.0006     3.8069     7.6079 </r>
       <r>    -9.9308     2.5170     7.7836 </r>
       <r>    -9.8609     1.4690     7.8861 </r>
       <r>    -9.7911     0.7956     7.9417 </r>
       <r>    -9.7213     0.4135     7.9706 </r>
       <r>    -9.6515     0.2104     7.9852 </r>
       <r>    -9.5817     0.1058     7.9926 </r>
       <r>    -9.5119     0.0529     7.9963 </r>
       <r>    -9.4421     0.0264     7.9982 </r>
       <r>    -9.3722     0.0132     7.9991 </r>
       <r>    -9.3024     0.0076     8.0005 </r>
       <r>    -9.2326     0.0076     8.0011 </r>
       <r>    -9.1628     0.0153     8.0021 </r>
       <r>    -9.0930     0.0307     8.0043 </r>
       <r>    -9.0232     0.0616     8.0086 </r>
       <r>    -8.9534     0.1230     8.0172 </r>
       <r>    -8.8835     0.2441     8.0342 </r>
       <r>    -8.8137     0.4782     8.0676 </r>
       <r>    -8.7439     0.9136     8.1314 </r>
       <r>    -8.6741     1.6653     8.2476 </r>
       <r>    -8.6043     2.7900     8.4424 </r>
       <r>    -8.5345     4.0744     8.7269 </r>
       <r>    -8.4647     4.8966     9.0687 </r>
       <r>    -8.3948     4.6758     9.3952 </r>
       <r>    -8.3250     3.5810     9.6452 </r>
       <r>    -8.2552     2.3065     9.8062 </r>
       <r>    -8.1854     1.3243     9.8986 </r>
       <r>    -8.1156     0.7107     9.9483 </r>
       <r>    -8.0458     0.3676     9.9739 </r>
       <r>    -7.9760     0.1865     9.9869 </r>
       <r>    -7.9061     0.0937     9.9935 </r>
       <r>    -7.8363     0.0469     9.9968 </r>
       <r>    -7.7665     0.0234     9.9984 </r>
       <r>    -7.6967     0.0116     9.9992 </r>
       <r>    -7.6269     0.0000    10.0000 </r>
       <r>    -7.5571     0.0088    10.0006 </r>
       <r>    -7.4873     0.0089    10.0012 </r>
       <r>    -7.4174     0.0178    10.0025 </r>
       <r>    -7.3476     0.0357    10.0050 </r>
       <r>    -7.2778     0.0715    10.0100 </r>
       <r>    -7.2080     0.1426    10.0199 </r>
       <r>    -7.1382     0.2824    10.0396 </r>
       <r>    -7.0684     0.5510    10.0781 </r>
       <r>    -6.9986     1.0447    10.1510 </r>
       <r>    -6.9287     1.8769    10.2821 </r>
       <r>    -6.8589     3.0682    10.4963 </r>
       <r>    -6.7891     4.3164    10.7976 </r>
       <r>    -6.7193     4.9453    11.1429 </r>
       <r>    -6.6495     4.4928    11.4565 </r>
       <r>    -6.5797     3.2991    11.6869 </r>
       <r>    -6.5099     2.0632    11.8309 </r>
       <r>    -6.4400     1.1635    11.9121 </r>
       <r>    -6.3702     0.6182    11.9553 </r>
       <r>    -6.3004     0.3181    11.9775 </r>
       <r>    -6.2306     0.1610    11.9887 </r>
       <r>    -6.1608     0.0808    11.9944 </r>
       <r>    -6.0910     0.0403    11.9972 </r>
       <r>    -6.0212     0.0201    11.9986 </r>
       <r>    -5.9513     0.0100    11.9993 </r>
       <r>    -5.8815     0.0000    12.0000 </r>
       <r>    -5.8117     0.0000    12.0000 </r>
       <r>    -5.7419     0.0000    12.0000 </r>
       <r>    -5.6721     0.0000    12.0000 </r>
       <r>    -5.6023     0.0000    12.0000 </r>
       <r>    -5.5325     0.0000    12.0000 </r>
       <r>    -5.4626     0.0000    12.0000 </r>
       <r>    -5.3928     0.0000    12.0000 </r>
       <r>    -5.3230     0.0000    12.0000 </r>
       <r>    -5.2532     0.0000    12.0000 </r>
       <r>    -5.1834     0.0000    12.0000 </r>
       <r>    -5.1136     0.0000    12.0000 </r>
       <r>    -5.0438     0.0000    12.0000 </r>
       <r>    -4.9739     0.0000    12.0000 </r>
       <r>    -4.9041     0.0000    12.0000 </r>
       <r>    -4.8343     0.0000    12.0000 </r>
       <r>    -4.7645     0.0000    12.0000 </r>
       <r>    -4.6947     0.0000    12.0000 </r>
       <r>    -4.6249     0.0000    12.0000 </r>
       <r>    -4.5551     0.0000    12.0000 </r>
       <r>    -4.4852     0.0000    12.0000 </r>
       <r>    -4.4154     0.0000    12.0000 </r>
       <r>    -4.3456     0.0000    12.0000 </r>
       <r>    -4.2758     0.0000    12.0000 </r>
       <r>    -4.2060     0.0000    12.0000 </r>
       <r>    -4.1362     0.0000    12.0000 </r>
       <r>    -4.0664     0.0000    12.0000 </r>
       <r>    -3.9965     0.0000    12.0000 </r>
       <r>    -3.9267     0.0000    12.0000 </r>
       <r>    -3.8569     0.0000    12.0000 </r>
       <r>    -3.7871     0.0000    12.0000 </r>
       <r>    -3.7173     0.0000    12.0000 </r>
       <r>    -3.6475     0.0000    12.0000 </r>
       <r>    -3.5777     0.0000    12.0000 </r>
       <r>    -3.5078     0.0000    12.0000 </r>
       <r>    -3.4380     0.0000    12.0000 </r>
       <r>    -3.3682     0.0000    12.0000 </r>
       <r>    -3.2984     0.0000    12.0000 </r>
       <r>    -3.2286     0.0000    12.0000 </r>
       <r>    -3.1588     0.0000    12.0000 </r>
       <r>    -3.0890     0.0000    12.0000 </r>
       <r>    -3.0191     0.0000    12.0000 </r>
       <r>    -2.9493     0.0000    12.0000 </r>
       <r>    -2.8795     0.0000    12.0000 </r>
       <r>    -2.8097     0.0000    12.0000 </r>
       <r>    -2.7399     0.0000    12.0000 </r>
       <r>    -2.6701     0.0000    12.0000 </r>
       <r>    -2.6003     0.0000    12.0000 </r>
       <r>    -2.5304     0.0000    12.0000 </r>
       <r>    -2.4606     0.0000    12.0000 </r>
       <r>    -2.3908     0.0000    12.0000 </r>
       <r>    -2.3210     0.0000    12.0000 </r>
       <r>    -2.2512     0.0000    12.0000 </r>
       <r>    -2.1814     0.0000    12.0000 </r>
       <r>    -2.1116     0.0000    12.0000 </r>
       <r>    -2.0417     0.0000    12.0000 </r>
       <r>    -1.9719     0.0000    12.0000 </r>
       <r>    -1.9021     0.0071    12.0005 </r>
       <r>    -1.8323     0.0072    12.0010 </r>
       <r>    -1.7625     0.0145    12.0020 </r>
       <r>    -1.6927     0.0291    12.0040 </r>
       <r>    -1.6229     0.0583    12.0081 </r>
       <r>    -1.5530     0.1164    12.0162 </r>
       <r>    -1.4832     0.2312    12.0324 </r>
       <r>    -1.4134     0.4535    12.0640 </r>
       <r>    -1.3436     0.8688    12.1247 </r>
       <r>    -1.2738     1.5914    12.2358 </r>
       <r>    -1.2040     2.6890    12.4235 </r>
       <r>    -1.1342     3.9875    12.7019 </r>
       <r>    -1.0643     4.8739    13.0422 </r>
       <r>    -0.9945     4.7509    13.3739 </r>
       <r>    -0.9247     3.7196    13.6335 </r>
       <r>    -0.8549     2.4716    13.8061 </r>
       <r>    -0.7851     1.5299    13.9129 </r>
       <r>    -0.7153     1.0345    13.9851 </r>
       <r>    -0.6455     0.9492    14.0514 </r>
       <r>    -0.5756     1.2552    14.1390 </r>
       <r>    -0.5058     2.0062    14.2791 </r>
       <r>    -0.4360     3.1867    14.5016 </r>
       <r>    -0.3662     4.4962    14.8155 </r>
       <r>    -0.2964     5.2889    15.1847 </r>
       <r>    -0.2266     5.1594    15.5458 </r>
       <r>    -0.1568     4.5862    15.8659 </r>
       <r>    -0.0869     4.4603    16.1773 </r>
       <r>    -0.0171     5.3711    16.5523 </r>
       <r>     0.0527     7.2720    17.0600 </r>
       <r>     0.1225     9.2800    17.7079 </r>
       <r>     0.1923     9.9548    18.4029 </r>
       <r>     0.2621     8.6215    19.0048 </r>
       <r>     0.3319     6.1332    19.4330 </r>
       <r>     0.4018     3.7644    19.6958 </r>
       <r>     0.4716     2.1013    19.8425 </r>
       <r>     0.5414     1.1055    19.9204 </r>
       <r>     0.6112     0.5673    19.9600 </r>
       <r>     0.6810     0.2867    19.9800 </r>
       <r>     0.7508     0.1438    19.9900 </r>
       <r>     0.8206     0.0718    19.9950 </r>
       <r>     0.8905     0.0358    19.9975 </r>
       <r>     0.9603     0.0107    19.9993 </r>
       <r>     1.0301     0.0000    20.0000 </r>
       <r>     1.0999     0.0000    20.0000 </r>
       <r>     1.1697     0.0000    20.0000 </r>
      </set>
     </set>
    </array>
   </total>
  </dos>
 </calculation>
 <structure name="finalpos" >
  <crystal>
   <varray name="basis" >
    <v>      20.00000000       0.00000000       0.00000000 </v>
    <v>       0.00000000      20.00000000       0.00000000 </v>
    <v>       0.00000000       0.00000000      20.00000000 </v>
   </varray>
   <i name="volume">   8000.00000000 </i>
   <varray name="rec_basis" >
    <v>       0.05000000       0.00000000       0.00000000 </v>
    <v>       0.00000000       0.05000000       0.00000000 </v>
    <v>       0.00000000       0.00000000       0.05000000 </v>
   </varray>
  </crystal>
  <varray name="positions" >
   <v>       0.50000000       0.50000000       0.53332525 </v>
   <v>       0.50000000       0.50000000       0.46667475 </v>
   <v>       0.50000000       0.54643769       0.56204029 </v>
   <v>       0.50000000       0.45356231       0.56204029 </v>
   <v>       0.50000000       0.54643769       0.43795971 </v>
   <v>       0.50000000       0.45356231       0.43845971 </v>
  </varray>
 </structure>
</modeling>
