 running on   20 total cores
 distrk:  each k-point on   20 cores,    1 groups
 distr:  one band on    4 cores,    5 groups
 using from now: INCAR     
 vasp.5.4.1 24Jun15 (build Oct 10 2016 12:42:00) complex                        
  
 POSCAR found :  2 types and       6 ions
 scaLAPACK will be used

 ----------------------------------------------------------------------------- 
|                                                                             |
|  ADVICE TO THIS USER RUNNING 'VASP/VAMP'   (HEAR YOUR MASTER'S VOICE ...):  |
|                                                                             |
|      You have a (more or less) 'small supercell' and for smaller cells      |
|      it is recommended  to use the reciprocal-space projection scheme!      |
|      The real space optimization is not  efficient for small cells and it   |
|      is also less accurate ...                                              |
|      Therefore set LREAL=.FALSE. in the  INCAR file                         |
|                                                                             |
 ----------------------------------------------------------------------------- 

 LDA part: xc-table for Pade appr. of Perdew
 POSCAR found :  2 types and       6 ions
 POSCAR, INCAR and KPOINTS ok, starting setup
 WARNING: small aliasing (wrap around) errors must be expected
 FFT: planning ...
 WAVECAR not read
 entering main loop
       N       E                     dE             d eps       ncg     rms          rms(c)
DAV:   1     0.368258758294E+02    0.36826E+02   -0.24031E+03    40   0.414E+02
DAV:   2    -0.281261955259E+02   -0.64952E+02   -0.64952E+02    30   0.125E+02
DAV:   3    -0.358980878390E+02   -0.77719E+01   -0.77719E+01    20   0.506E+01
DAV:   4    -0.361024703471E+02   -0.20438E+00   -0.20438E+00    40   0.105E+01    0.979E+00
RMM:   5    -0.328115513291E+02    0.32909E+01   -0.57231E+00    27   0.139E+01    0.520E+00
RMM:   6    -0.320683129021E+02    0.74324E+00   -0.29497E+00    27   0.949E+00    0.222E+00
RMM:   7    -0.319651825906E+02    0.10313E+00   -0.20471E-01    27   0.299E+00    0.233E-01
RMM:   8    -0.319601167737E+02    0.50658E-02   -0.19848E-02    28   0.806E-01    0.177E-01
RMM:   9    -0.319575403065E+02    0.25765E-02   -0.99811E-03    22   0.521E-01    0.124E-01
RMM:  10    -0.319577156346E+02   -0.17533E-03   -0.15041E-03    25   0.265E-01    0.555E-02
RMM:  11    -0.319638232619E+02   -0.61076E-02   -0.17740E-03    22   0.188E-01    0.324E-02
RMM:  12    -0.319654670038E+02   -0.16437E-02   -0.31063E-04    27   0.777E-02    0.242E-02
RMM:  13    -0.319700344251E+02   -0.45674E-02   -0.14256E-03    22   0.190E-01    0.320E-02
RMM:  14    -0.319704005680E+02   -0.36614E-03   -0.21804E-04    28   0.663E-02    0.720E-03
RMM:  15    -0.319710535794E+02   -0.65301E-03   -0.65791E-05    21   0.390E-02    0.442E-03
RMM:  16    -0.319712345616E+02   -0.18098E-03   -0.23003E-05    23   0.225E-02    0.100E-02
RMM:  17    -0.319714140388E+02   -0.17948E-03   -0.26291E-05    27   0.284E-02    0.381E-03
RMM:  18    -0.319714273724E+02   -0.13334E-04   -0.11042E-06    21   0.759E-03    0.290E-03
RMM:  19    -0.319714716168E+02   -0.44244E-04   -0.24026E-06    21   0.960E-03    0.135E-03
RMM:  20    -0.319714734471E+02   -0.18303E-05   -0.19602E-07    20   0.367E-03    0.649E-04
RMM:  21    -0.319714807926E+02   -0.73455E-05   -0.35399E-07    20   0.364E-03    0.101E-03
RMM:  22    -0.319714815896E+02   -0.79703E-06   -0.40412E-08    16   0.186E-03
   1 F= -.31971482E+02 E0= -.31971482E+02  d E =-.184391E-09
