unknown system                          
           1
    20.000000    0.000000    0.000000
     0.000000   20.000000    0.000000
     0.000000    0.000000   20.000000
   C    H 
   2   4
Direct configuration=     1
   0.50000000  0.50000000  0.53332525
   0.50000000  0.50000000  0.46667475
   0.50000000  0.54643769  0.56204029
   0.50000000  0.45356231  0.56204029
   0.50000000  0.54643769  0.43795971
   0.50000000  0.45356231  0.43795971
