   42   42    1    1
  0.3199246E+02  0.8421642E-09  0.8421642E-09  0.2187624E-08  0.5000000E-15
  1.000000000000000E-004
  CAR 
 unknown system                          
    372     54    225
 
  0.8333333E-01  0.8333333E-01  0.0000000E+00  0.1851852E-01
    1      -12.727819   1.000000
    2       -8.712254   1.000000
    3       -7.759085   1.000000
    4       -6.455877   1.000000
    5       -5.479283   1.000000
    6       -5.413364   1.000000
    7       -5.360507   1.000000
    8       -5.346807   1.000000
    9       -5.333834   1.000000
   10       -5.258182   1.000000
   11       -5.189649   1.000000
   12       -5.184155   1.000000
   13       -5.152355   1.000000
   14       -4.791063   1.000000
   15       -4.713814   1.000000
   16       -4.693540   1.000000
   17       -4.687566   1.000000
   18       -4.672477   1.000000
   19       -4.664793   1.000000
   20       -4.552138   1.000000
   21       -4.222343   1.000000
   22       -4.199671   1.000000
   23       -4.192511   1.000000
   24       -4.176476   1.000000
   25       -4.153602   1.000000
   26       -4.126918   1.000000
   27       -4.049969   1.000000
   28       -4.010099   1.000000
   29       -4.009567   1.000000
   30       -3.901412   1.000000
   31       -3.886614   1.000000
   32       -3.853674   1.000000
   33       -3.806278   1.000000
   34       -3.793913   1.000000
   35       -3.777593   1.000000
   36       -3.756279   1.000000
   37       -3.751432   1.000000
   38       -3.727118   1.000000
   39       -3.725858   1.000000
   40       -3.664712   1.000000
   41       -3.655655   1.000000
   42       -3.599595   1.000000
   43       -3.567523   1.000000
   44       -3.542387   1.000000
   45       -3.252841   1.000000
   46       -3.191657   1.000000
   47       -3.109987   1.000000
   48       -3.100491   1.000000
   49       -3.088779   1.000000
   50       -3.082672   1.000000
   51       -3.058535   1.000000
   52       -3.002687   1.000000
   53       -2.985850   1.000000
   54       -2.921340   1.000000
   55       -2.884136   1.000000
   56       -2.868317   1.000000
   57       -2.810337   1.000000
   58       -2.801452   1.000000
   59       -2.759922   1.000000
   60       -2.696089   1.000000
   61       -2.296645   1.000000
   62       -2.266089   1.000000
   63       -2.253132   1.000000
   64       -2.221751   1.000000
   65       -2.190492   1.000000
   66       -2.180034   1.000000
   67       -2.151299   1.000000
   68       -2.136383   1.000000
   69       -2.127521   1.000000
   70       -2.120933   1.000000
   71       -2.083538   1.000000
   72       -2.076413   1.000000
   73       -2.023613   1.000000
   74       -2.017818   1.000000
   75       -2.012940   1.000000
   76       -1.997428   1.000000
   77       -1.967605   1.000000
   78       -1.901903   1.000000
   79       -1.900462   1.000000
   80       -1.887888   1.000000
   81       -1.876622   1.000000
   82       -1.843058   1.000000
   83       -1.815712   1.000000
   84       -1.793608   1.000000
   85       -1.742795   1.000000
   86       -1.732672   1.000000
   87       -1.708669   1.000000
   88       -1.634963   1.000000
   89       -1.608290   1.000000
   90       -1.581598   1.000000
   91       -1.574464   1.000000
   92       -1.540990   1.000000
   93       -1.520887   1.000000
   94       -1.502678   1.000000
   95       -1.492338   1.000000
   96       -1.469632   1.000000
   97       -1.466464   1.000000
   98       -1.439123   1.000000
   99       -1.405749   1.000000
  100       -1.381041   1.000000
  101       -1.367643   1.000000
  102       -1.358631   1.000000
  103       -1.286270   1.000000
  104       -1.252930   1.000000
  105       -1.229482   1.000000
  106       -1.203043   1.000000
  107       -1.202668   1.000000
  108       -1.156621   1.000000
  109       -1.139947   1.000000
  110       -1.108961   1.000000
  111       -1.096566   1.000000
  112       -1.063998   1.000000
  113       -0.915726   1.000000
  114       -0.861182   1.000000
  115       -0.821014   1.000000
  116       -0.791389   1.000000
  117       -0.737526   1.000000
  118       -0.729680   1.000000
  119       -0.691081   1.000000
  120       -0.611899   1.000000
  121       -0.600158   1.000000
  122       -0.581768   1.000000
  123       -0.566925   1.000000
  124       -0.539038   1.000000
  125       -0.506945   1.000000
  126       -0.466401   1.000000
  127       -0.428005   1.000000
  128       -0.387152   1.000000
  129       -0.335722   1.000000
  130       -0.286826   1.000000
  131       -0.175769   1.000000
  132       -0.143582   1.000000
  133       -0.126732   1.000000
  134       -0.066283   1.000000
  135       -0.053544   1.000000
  136       -0.033780   1.000000
  137       -0.028309   1.000000
  138       -0.020680   1.000000
  139        0.003332   1.000000
  140        0.010861   1.000000
  141        0.093984   0.999999
  142        0.119157   0.999999
  143        0.128407   0.999999
  144        0.195365   0.999997
  145        0.231772   0.999996
  146        0.254756   0.999995
  147        0.286332   0.999993
  148        0.312824   0.999992
  149        0.316601   0.999991
  150        0.327266   0.999990
  151        0.374932   0.999984
  152        0.419066   0.999975
  153        0.527199   0.999928
  154        0.551039   0.999908
  155        0.556251   0.999903
  156        0.591154   0.999863
  157        0.603785   0.999844
  158        0.625550   0.999806
  159        0.629655   0.999798
  160        0.651562   0.999749
  161        0.709834   0.999551
  162        0.713089   0.999536
  163        0.722987   0.999487
  164        0.755001   0.999294
  165        0.802643   0.998864
  166        0.823746   0.998597
  167        0.838671   0.998372
  168        0.842481   0.998309
  169        0.873034   0.997706
  170        0.876659   0.997621
  171        0.896158   0.997110
  172        0.896769   0.997093
  173        0.924509   0.996167
  174        0.948646   0.995125
  175        0.976728   0.993555
  176        0.984288   0.993053
  177        0.990357   0.992621
  178        1.018764   0.990221
  179        1.059732   0.985342
  180        1.067859   0.984120
  181        1.087698   0.980703
  182        1.102303   0.977736
  183        1.151376   0.964137
  184        1.162997   0.959895
  185        1.183884   0.951035
  186        1.202640   0.941524
  187        1.207616   0.938724
  188        1.228425   0.925603
  189        1.259522   0.901150
  190        1.266343   0.894906
  191        1.279168   0.882219
  192        1.285003   0.876019
  193        1.304090   0.853759
  194        1.315760   0.838579
  195        1.422956   0.640085
  196        1.510952   0.424524
  197        1.533380   0.370864
  198        1.537420   0.361488
  199        1.565913   0.298629
  200        1.576781   0.276373
  201        1.606908   0.220322
  202        1.805023   0.037509
  203        2.040122   0.003699
  204        2.172640   0.000986
  205        2.293086   0.000296
  206        2.452935   0.000060
  207        2.499828   0.000037
  208        2.589551   0.000015
  209        3.724759   0.000000
  210        3.801633   0.000000
  211        4.445842   0.000000
  212        4.697664   0.000000
  213        4.729232   0.000000
  214        4.906134   0.000000
  215        5.538591   0.000000
  216        5.627169   0.000000
  217        5.813912   0.000000
  218        5.815809   0.000000
  219        6.208629   0.000000
  220        6.296626   0.000000
  221        6.301688   0.000000
  222        6.662847   0.000000
  223        6.726129   0.000000
  224        6.747568   0.000000
  225        7.035316   0.000000
 
  0.0000000E+00  0.8333333E-01  0.0000000E+00  0.1851852E-01
    1      -12.727809   1.000000
    2       -8.712487   1.000000
    3       -7.758904   1.000000
    4       -6.455483   1.000000
    5       -5.473842   1.000000
    6       -5.407346   1.000000
    7       -5.367731   1.000000
    8       -5.352741   1.000000
    9       -5.331423   1.000000
   10       -5.258220   1.000000
   11       -5.195270   1.000000
   12       -5.182951   1.000000
   13       -5.148416   1.000000
   14       -4.767390   1.000000
   15       -4.722689   1.000000
   16       -4.713743   1.000000
   17       -4.682878   1.000000
   18       -4.673801   1.000000
   19       -4.670894   1.000000
   20       -4.541104   1.000000
   21       -4.223470   1.000000
   22       -4.204517   1.000000
   23       -4.195527   1.000000
   24       -4.173250   1.000000
   25       -4.156799   1.000000
   26       -4.106053   1.000000
   27       -4.076659   1.000000
   28       -4.010912   1.000000
   29       -3.997595   1.000000
   30       -3.900157   1.000000
   31       -3.886900   1.000000
   32       -3.848779   1.000000
   33       -3.821900   1.000000
   34       -3.800984   1.000000
   35       -3.788871   1.000000
   36       -3.760032   1.000000
   37       -3.736452   1.000000
   38       -3.733151   1.000000
   39       -3.715931   1.000000
   40       -3.662904   1.000000
   41       -3.631909   1.000000
   42       -3.613704   1.000000
   43       -3.564568   1.000000
   44       -3.549612   1.000000
   45       -3.246295   1.000000
   46       -3.190606   1.000000
   47       -3.122083   1.000000
   48       -3.113413   1.000000
   49       -3.088791   1.000000
   50       -3.071418   1.000000
   51       -3.039001   1.000000
   52       -3.019908   1.000000
   53       -2.964493   1.000000
   54       -2.920976   1.000000
   55       -2.905856   1.000000
   56       -2.845767   1.000000
   57       -2.813965   1.000000
   58       -2.802913   1.000000
   59       -2.769441   1.000000
   60       -2.693235   1.000000
   61       -2.300204   1.000000
   62       -2.270167   1.000000
   63       -2.238305   1.000000
   64       -2.227772   1.000000
   65       -2.196858   1.000000
   66       -2.177122   1.000000
   67       -2.149996   1.000000
   68       -2.141332   1.000000
   69       -2.133688   1.000000
   70       -2.117918   1.000000
   71       -2.082807   1.000000
   72       -2.079879   1.000000
   73       -2.026597   1.000000
   74       -2.011032   1.000000
   75       -2.009418   1.000000
   76       -1.996436   1.000000
   77       -1.967847   1.000000
   78       -1.913070   1.000000
   79       -1.897019   1.000000
   80       -1.886021   1.000000
   81       -1.865716   1.000000
   82       -1.829171   1.000000
   83       -1.815915   1.000000
   84       -1.774267   1.000000
   85       -1.760705   1.000000
   86       -1.735571   1.000000
   87       -1.709048   1.000000
   88       -1.651396   1.000000
   89       -1.608626   1.000000
   90       -1.587008   1.000000
   91       -1.575406   1.000000
   92       -1.539627   1.000000
   93       -1.517695   1.000000
   94       -1.500852   1.000000
   95       -1.482328   1.000000
   96       -1.474940   1.000000
   97       -1.461690   1.000000
   98       -1.450147   1.000000
   99       -1.403406   1.000000
  100       -1.381721   1.000000
  101       -1.366412   1.000000
  102       -1.362297   1.000000
  103       -1.295651   1.000000
  104       -1.237241   1.000000
  105       -1.210842   1.000000
  106       -1.203541   1.000000
  107       -1.202426   1.000000
  108       -1.175610   1.000000
  109       -1.153826   1.000000
  110       -1.127774   1.000000
  111       -1.080219   1.000000
  112       -1.035135   1.000000
  113       -0.960035   1.000000
  114       -0.864252   1.000000
  115       -0.813191   1.000000
  116       -0.777155   1.000000
  117       -0.739849   1.000000
  118       -0.672520   1.000000
  119       -0.665492   1.000000
  120       -0.646690   1.000000
  121       -0.599965   1.000000
  122       -0.580317   1.000000
  123       -0.562072   1.000000
  124       -0.549709   1.000000
  125       -0.517136   1.000000
  126       -0.450026   1.000000
  127       -0.438805   1.000000
  128       -0.400478   1.000000
  129       -0.335739   1.000000
  130       -0.302382   1.000000
  131       -0.175548   1.000000
  132       -0.142601   1.000000
  133       -0.107123   1.000000
  134       -0.073948   1.000000
  135       -0.057457   1.000000
  136       -0.037278   1.000000
  137       -0.023887   1.000000
  138       -0.020290   1.000000
  139       -0.011162   1.000000
  140        0.009530   1.000000
  141        0.087005   0.999999
  142        0.095278   0.999999
  143        0.152179   0.999998
  144        0.177714   0.999998
  145        0.228900   0.999996
  146        0.245892   0.999996
  147        0.294401   0.999993
  148        0.305344   0.999992
  149        0.323370   0.999991
  150        0.354416   0.999987
  151        0.382324   0.999983
  152        0.422062   0.999975
  153        0.518769   0.999933
  154        0.547810   0.999911
  155        0.561678   0.999898
  156        0.598156   0.999853
  157        0.600951   0.999849
  158        0.610610   0.999833
  159        0.630073   0.999797
  160        0.675350   0.999682
  161        0.693268   0.999619
  162        0.721022   0.999497
  163        0.735470   0.999419
  164        0.752125   0.999314
  165        0.783541   0.999061
  166        0.812964   0.998740
  167        0.850166   0.998174
  168        0.857398   0.998037
  169        0.873273   0.997700
  170        0.882299   0.997483
  171        0.898787   0.997034
  172        0.915838   0.996484
  173        0.918494   0.996390
  174        0.941347   0.995467
  175        0.972342   0.993830
  176        0.976938   0.993542
  177        0.990264   0.992628
  178        1.016298   0.990457
  179        1.042817   0.987594
  180        1.076891   0.982645
  181        1.098315   0.978588
  182        1.114309   0.974967
  183        1.141649   0.967353
  184        1.165788   0.958806
  185        1.178886   0.953311
  186        1.194540   0.945828
  187        1.199366   0.943301
  188        1.230259   0.924331
  189        1.260645   0.900145
  190        1.265887   0.895334
  191        1.282466   0.878749
  192        1.285101   0.875912
  193        1.305104   0.852488
  194        1.317405   0.836340
  195        1.432752   0.617222
  196        1.507878   0.432051
  197        1.518176   0.406978
  198        1.559682   0.311841
  199        1.562440   0.305953
  200        1.569505   0.291159
  201        1.605562   0.222642
  202        1.811008   0.035407
  203        2.000143   0.005507
  204        2.233075   0.000539
  205        2.280568   0.000335
  206        2.420210   0.000083
  207        2.516655   0.000032
  208        2.597679   0.000014
  209        3.646169   0.000000
  210        3.887268   0.000000
  211        4.468445   0.000000
  212        4.587726   0.000000
  213        4.766015   0.000000
  214        4.964847   0.000000
  215        5.459391   0.000000
  216        5.679915   0.000000
  217        5.796512   0.000000
  218        5.836522   0.000000
  219        6.212596   0.000000
  220        6.278567   0.000000
  221        6.323829   0.000000
  222        6.637730   0.000000
  223        6.696139   0.000000
  224        6.739537   0.000000
  225        6.834691   0.000000
 
 -0.8333333E-01  0.0000000E+00  0.0000000E+00  0.1851852E-01
    1      -12.727809   1.000000
    2       -8.712487   1.000000
    3       -7.758920   1.000000
    4       -6.455496   1.000000
    5       -5.477868   1.000000
    6       -5.407188   1.000000
    7       -5.367653   1.000000
    8       -5.350574   1.000000
    9       -5.329342   1.000000
   10       -5.258277   1.000000
   11       -5.191950   1.000000
   12       -5.181786   1.000000
   13       -5.153087   1.000000
   14       -4.767242   1.000000
   15       -4.720834   1.000000
   16       -4.713136   1.000000
   17       -4.683689   1.000000
   18       -4.675381   1.000000
   19       -4.671779   1.000000
   20       -4.541162   1.000000
   21       -4.223531   1.000000
   22       -4.204128   1.000000
   23       -4.194528   1.000000
   24       -4.173883   1.000000
   25       -4.156943   1.000000
   26       -4.106030   1.000000
   27       -4.076503   1.000000
   28       -4.010853   1.000000
   29       -3.997952   1.000000
   30       -3.900584   1.000000
   31       -3.886964   1.000000
   32       -3.850030   1.000000
   33       -3.824160   1.000000
   34       -3.801837   1.000000
   35       -3.792045   1.000000
   36       -3.757300   1.000000
   37       -3.734037   1.000000
   38       -3.730695   1.000000
   39       -3.713839   1.000000
   40       -3.661505   1.000000
   41       -3.632019   1.000000
   42       -3.614342   1.000000
   43       -3.566401   1.000000
   44       -3.550366   1.000000
   45       -3.246227   1.000000
   46       -3.190904   1.000000
   47       -3.123061   1.000000
   48       -3.113878   1.000000
   49       -3.088079   1.000000
   50       -3.070010   1.000000
   51       -3.038411   1.000000
   52       -3.020089   1.000000
   53       -2.963418   1.000000
   54       -2.921025   1.000000
   55       -2.906039   1.000000
   56       -2.846065   1.000000
   57       -2.814653   1.000000
   58       -2.803085   1.000000
   59       -2.768992   1.000000
   60       -2.693473   1.000000
   61       -2.299929   1.000000
   62       -2.267520   1.000000
   63       -2.236142   1.000000
   64       -2.225190   1.000000
   65       -2.196881   1.000000
   66       -2.177551   1.000000
   67       -2.150626   1.000000
   68       -2.143776   1.000000
   69       -2.133245   1.000000
   70       -2.118557   1.000000
   71       -2.086197   1.000000
   72       -2.078778   1.000000
   73       -2.025600   1.000000
   74       -2.009996   1.000000
   75       -2.006397   1.000000
   76       -1.998376   1.000000
   77       -1.967848   1.000000
   78       -1.912476   1.000000
   79       -1.893872   1.000000
   80       -1.886933   1.000000
   81       -1.864172   1.000000
   82       -1.832313   1.000000
   83       -1.824569   1.000000
   84       -1.778877   1.000000
   85       -1.763080   1.000000
   86       -1.728655   1.000000
   87       -1.706035   1.000000
   88       -1.648628   1.000000
   89       -1.613228   1.000000
   90       -1.583484   1.000000
   91       -1.571281   1.000000
   92       -1.537824   1.000000
   93       -1.520678   1.000000
   94       -1.501996   1.000000
   95       -1.481764   1.000000
   96       -1.476053   1.000000
   97       -1.464557   1.000000
   98       -1.451907   1.000000
   99       -1.404320   1.000000
  100       -1.380586   1.000000
  101       -1.366980   1.000000
  102       -1.362140   1.000000
  103       -1.291896   1.000000
  104       -1.238669   1.000000
  105       -1.208778   1.000000
  106       -1.203354   1.000000
  107       -1.202183   1.000000
  108       -1.177227   1.000000
  109       -1.154062   1.000000
  110       -1.131121   1.000000
  111       -1.081851   1.000000
  112       -1.030931   1.000000
  113       -0.960461   1.000000
  114       -0.863821   1.000000
  115       -0.812463   1.000000
  116       -0.775948   1.000000
  117       -0.737820   1.000000
  118       -0.673554   1.000000
  119       -0.663243   1.000000
  120       -0.648236   1.000000
  121       -0.600218   1.000000
  122       -0.579877   1.000000
  123       -0.564433   1.000000
  124       -0.550593   1.000000
  125       -0.517387   1.000000
  126       -0.451991   1.000000
  127       -0.438107   1.000000
  128       -0.401400   1.000000
  129       -0.336630   1.000000
  130       -0.302643   1.000000
  131       -0.174848   1.000000
  132       -0.141349   1.000000
  133       -0.109850   1.000000
  134       -0.073095   1.000000
  135       -0.056543   1.000000
  136       -0.038308   1.000000
  137       -0.028058   1.000000
  138       -0.016761   1.000000
  139       -0.010663   1.000000
  140        0.008965   1.000000
  141        0.084682   0.999999
  142        0.094113   0.999999
  143        0.150129   0.999998
  144        0.176732   0.999998
  145        0.230262   0.999996
  146        0.244473   0.999996
  147        0.292855   0.999993
  148        0.303042   0.999992
  149        0.329686   0.999990
  150        0.355140   0.999987
  151        0.382777   0.999983
  152        0.423618   0.999974
  153        0.520113   0.999933
  154        0.547384   0.999911
  155        0.562519   0.999897
  156        0.598767   0.999852
  157        0.600415   0.999849
  158        0.611107   0.999832
  159        0.629256   0.999799
  160        0.674556   0.999684
  161        0.694047   0.999616
  162        0.720430   0.999500
  163        0.735578   0.999419
  164        0.750984   0.999322
  165        0.784618   0.999051
  166        0.813923   0.998728
  167        0.848600   0.998202
  168        0.857287   0.998039
  169        0.872954   0.997707
  170        0.882221   0.997485
  171        0.899841   0.997002
  172        0.917196   0.996436
  173        0.919833   0.996341
  174        0.943000   0.995392
  175        0.971983   0.993852
  176        0.975678   0.993622
  177        0.992035   0.992497
  178        1.014794   0.990598
  179        1.042559   0.987626
  180        1.077273   0.982580
  181        1.098729   0.978501
  182        1.115228   0.974742
  183        1.143566   0.966742
  184        1.165393   0.958962
  185        1.179034   0.953245
  186        1.192812   0.946706
  187        1.197508   0.944286
  188        1.229997   0.924514
  189        1.257907   0.902580
  190        1.265044   0.896121
  191        1.279479   0.881895
  192        1.285023   0.875997
  193        1.305933   0.851442
  194        1.315267   0.839244
  195        1.440843   0.597933
  196        1.504623   0.440056
  197        1.520119   0.402297
  198        1.558266   0.314887
  199        1.563545   0.303611
  200        1.571992   0.286054
  201        1.607601   0.219133
  202        1.810372   0.035625
  203        1.998927   0.005574
  204        2.234602   0.000531
  205        2.282578   0.000329
  206        2.420881   0.000082
  207        2.513881   0.000033
  208        2.596319   0.000014
  209        3.646053   0.000000
  210        3.886619   0.000000
  211        4.466557   0.000000
  212        4.592722   0.000000
  213        4.766145   0.000000
  214        4.963138   0.000000
  215        5.459563   0.000000
  216        5.679108   0.000000
  217        5.795131   0.000000
  218        5.835835   0.000000
  219        6.213157   0.000000
  220        6.282312   0.000000
  221        6.326953   0.000000
  222        6.637081   0.000000
  223        6.718701   0.000000
  224        6.759201   0.000000
  225        6.972728   0.000000
 
  0.2500000E+00  0.8333333E-01  0.0000000E+00  0.1851852E-01
    1      -12.727597   1.000000
    2       -8.713162   1.000000
    3       -7.602282   1.000000
    4       -6.303146   1.000000
    5       -5.835506   1.000000
    6       -5.646914   1.000000
    7       -5.404865   1.000000
    8       -5.209633   1.000000
    9       -5.195117   1.000000
   10       -5.113061   1.000000
   11       -5.055365   1.000000
   12       -5.033932   1.000000
   13       -5.010756   1.000000
   14       -4.853762   1.000000
   15       -4.795192   1.000000
   16       -4.751795   1.000000
   17       -4.681826   1.000000
   18       -4.557207   1.000000
   19       -4.545529   1.000000
   20       -4.515287   1.000000
   21       -4.278349   1.000000
   22       -4.220274   1.000000
   23       -4.148354   1.000000
   24       -4.129734   1.000000
   25       -4.093243   1.000000
   26       -4.085872   1.000000
   27       -4.048583   1.000000
   28       -4.025746   1.000000
   29       -4.002540   1.000000
   30       -3.952204   1.000000
   31       -3.942880   1.000000
   32       -3.918521   1.000000
   33       -3.895845   1.000000
   34       -3.853877   1.000000
   35       -3.816544   1.000000
   36       -3.782026   1.000000
   37       -3.769140   1.000000
   38       -3.709179   1.000000
   39       -3.591179   1.000000
   40       -3.546560   1.000000
   41       -3.509684   1.000000
   42       -3.488848   1.000000
   43       -3.461653   1.000000
   44       -3.436132   1.000000
   45       -3.292409   1.000000
   46       -3.263040   1.000000
   47       -3.209257   1.000000
   48       -3.158776   1.000000
   49       -3.143806   1.000000
   50       -3.106107   1.000000
   51       -3.071747   1.000000
   52       -3.004739   1.000000
   53       -2.966286   1.000000
   54       -2.904628   1.000000
   55       -2.843786   1.000000
   56       -2.814680   1.000000
   57       -2.801617   1.000000
   58       -2.787936   1.000000
   59       -2.758144   1.000000
   60       -2.703074   1.000000
   61       -2.558761   1.000000
   62       -2.518578   1.000000
   63       -2.371207   1.000000
   64       -2.329832   1.000000
   65       -2.321287   1.000000
   66       -2.291466   1.000000
   67       -2.262894   1.000000
   68       -2.219688   1.000000
   69       -2.210716   1.000000
   70       -2.190485   1.000000
   71       -2.179550   1.000000
   72       -2.118802   1.000000
   73       -2.093410   1.000000
   74       -2.072346   1.000000
   75       -2.051180   1.000000
   76       -2.036335   1.000000
   77       -2.008050   1.000000
   78       -1.971423   1.000000
   79       -1.966209   1.000000
   80       -1.855244   1.000000
   81       -1.848657   1.000000
   82       -1.794431   1.000000
   83       -1.779702   1.000000
   84       -1.749375   1.000000
   85       -1.732015   1.000000
   86       -1.723086   1.000000
   87       -1.699254   1.000000
   88       -1.685371   1.000000
   89       -1.642521   1.000000
   90       -1.619079   1.000000
   91       -1.600294   1.000000
   92       -1.546713   1.000000
   93       -1.535478   1.000000
   94       -1.522095   1.000000
   95       -1.511640   1.000000
   96       -1.487624   1.000000
   97       -1.480053   1.000000
   98       -1.464562   1.000000
   99       -1.438137   1.000000
  100       -1.419524   1.000000
  101       -1.387574   1.000000
  102       -1.370295   1.000000
  103       -1.331681   1.000000
  104       -1.311575   1.000000
  105       -1.275287   1.000000
  106       -1.246154   1.000000
  107       -1.240893   1.000000
  108       -1.221033   1.000000
  109       -1.159706   1.000000
  110       -1.137115   1.000000
  111       -1.126987   1.000000
  112       -1.068253   1.000000
  113       -1.057717   1.000000
  114       -1.016843   1.000000
  115       -0.977822   1.000000
  116       -0.934834   1.000000
  117       -0.903712   1.000000
  118       -0.875536   1.000000
  119       -0.846674   1.000000
  120       -0.724200   1.000000
  121       -0.681277   1.000000
  122       -0.633485   1.000000
  123       -0.611881   1.000000
  124       -0.574333   1.000000
  125       -0.557388   1.000000
  126       -0.532709   1.000000
  127       -0.506384   1.000000
  128       -0.460443   1.000000
  129       -0.398691   1.000000
  130       -0.358864   1.000000
  131       -0.317332   1.000000
  132       -0.253679   1.000000
  133       -0.194893   1.000000
  134       -0.149363   1.000000
  135       -0.123024   1.000000
  136       -0.100494   1.000000
  137       -0.061322   1.000000
  138       -0.030170   1.000000
  139       -0.021689   1.000000
  140       -0.001972   1.000000
  141        0.050819   0.999999
  142        0.072643   0.999999
  143        0.158136   0.999998
  144        0.200406   0.999997
  145        0.210260   0.999997
  146        0.232555   0.999996
  147        0.262158   0.999995
  148        0.301147   0.999992
  149        0.312902   0.999992
  150        0.325559   0.999990
  151        0.340154   0.999989
  152        0.364589   0.999986
  153        0.392132   0.999981
  154        0.433612   0.999972
  155        0.446925   0.999968
  156        0.477051   0.999956
  157        0.494807   0.999948
  158        0.547336   0.999911
  159        0.568997   0.999890
  160        0.591384   0.999862
  161        0.630825   0.999796
  162        0.697527   0.999603
  163        0.741652   0.999382
  164        0.756889   0.999281
  165        0.803641   0.998852
  166        0.867623   0.997826
  167        0.891610   0.997238
  168        0.908862   0.996720
  169        0.938792   0.995581
  170        0.953439   0.994887
  171        0.994907   0.992280
  172        1.019733   0.990126
  173        1.066603   0.984315
  174        1.100763   0.978069
  175        1.115420   0.974694
  176        1.148040   0.965273
  177        1.176534   0.954347
  178        1.201037   0.942401
  179        1.223921   0.928647
  180        1.246056   0.912514
  181        1.267490   0.893821
  182        1.294125   0.865767
  183        1.303574   0.854402
  184        1.342614   0.798853
  185        1.371936   0.747615
  186        1.382405   0.727354
  187        1.405612   0.678998
  188        1.435119   0.611614
  189        1.448064   0.580456
  190        1.483592   0.492343
  191        1.501981   0.446574
  192        1.524534   0.391730
  193        1.550103   0.332757
  194        1.587078   0.256262
  195        1.636620   0.173516
  196        1.657922   0.145054
  197        1.705085   0.095733
  198        1.709547   0.091939
  199        1.782466   0.046559
  200        1.810658   0.035527
  201        1.984545   0.006431
  202        2.002893   0.005359
  203        2.048414   0.003406
  204        2.386822   0.000116
  205        2.511779   0.000033
  206        2.845344   0.000001
  207        3.084255   0.000000
  208        3.121444   0.000000
  209        3.526734   0.000000
  210        3.883023   0.000000
  211        4.313703   0.000000
  212        4.578441   0.000000
  213        4.839046   0.000000
  214        5.058742   0.000000
  215        5.269847   0.000000
  216        5.381124   0.000000
  217        5.601435   0.000000
  218        5.816019   0.000000
  219        5.914226   0.000000
  220        5.966883   0.000000