 running on   20 total cores
 distrk:  each k-point on   20 cores,    1 groups
 distr:  one band on    5 cores,    4 groups
 using from now: INCAR     
 vasp.5.4.1 24Jun15 (build Oct 10 2016 12:42:00) complex                        
  
 POSCAR found :  2 types and       8 ions
 scaLAPACK will be used

 ----------------------------------------------------------------------------- 
|                                                                             |
|  ADVICE TO THIS USER RUNNING 'VASP/VAMP'   (HEAR YOUR MASTER'S VOICE ...):  |
|                                                                             |
|      You have a (more or less) 'small supercell' and for smaller cells      |
|      it is recommended  to use the reciprocal-space projection scheme!      |
|      The real space optimization is not  efficient for small cells and it   |
|      is also less accurate ...                                              |
|      Therefore set LREAL=.FALSE. in the  INCAR file                         |
|                                                                             |
 ----------------------------------------------------------------------------- 

 LDA part: xc-table for Pade appr. of Perdew
 POSCAR found :  2 types and       8 ions
 POSCAR, INCAR and KPOINTS ok, starting setup
 WARNING: small aliasing (wrap around) errors must be expected
 FFT: planning ...
 WAVECAR not read
 entering main loop
       N       E                     dE             d eps       ncg     rms          rms(c)
DAV:   1     0.567125218964E+02    0.56713E+02   -0.25848E+03    40   0.399E+02
DAV:   2    -0.232693951399E+02   -0.79982E+02   -0.78300E+02    48   0.109E+02
DAV:   3    -0.434305712092E+02   -0.20161E+02   -0.20156E+02    32   0.530E+01
DAV:   4    -0.457280595616E+02   -0.22975E+01   -0.22974E+01    32   0.190E+01    0.106E+01
RMM:   5    -0.416303491779E+02    0.40977E+01   -0.64577E+00    34   0.140E+01    0.558E+00
RMM:   6    -0.406741606213E+02    0.95619E+00   -0.39033E+00    34   0.980E+00    0.259E+00
RMM:   7    -0.405114076679E+02    0.16275E+00   -0.42040E-01    32   0.391E+00    0.550E-01
RMM:   8    -0.404876443490E+02    0.23763E-01   -0.49336E-02    34   0.113E+00    0.281E-01
RMM:   9    -0.404923693669E+02   -0.47250E-02   -0.17303E-01    28   0.194E+00    0.614E-01
RMM:  10    -0.404785066152E+02    0.13863E-01   -0.24457E-02    33   0.838E-01    0.145E-01
RMM:  11    -0.404835218276E+02   -0.50152E-02   -0.11791E-02    26   0.622E-01    0.682E-02
RMM:  12    -0.404851419160E+02   -0.16201E-02   -0.36896E-04    33   0.138E-01    0.528E-02
RMM:  13    -0.404928182997E+02   -0.76764E-02   -0.46889E-03    27   0.314E-01    0.620E-02
RMM:  14    -0.404935391470E+02   -0.72085E-03   -0.54382E-04    33   0.123E-01    0.209E-02
RMM:  15    -0.404953525446E+02   -0.18134E-02   -0.17825E-03    25   0.202E-01    0.483E-02
RMM:  16    -0.404952917110E+02    0.60834E-04   -0.85106E-05    32   0.522E-02    0.307E-02
RMM:  17    -0.404955451695E+02   -0.25346E-03   -0.43776E-04    26   0.990E-02    0.937E-03
RMM:  18    -0.404956153876E+02   -0.70218E-04   -0.86005E-05    34   0.474E-02    0.236E-02
RMM:  19    -0.404956483789E+02   -0.32991E-04   -0.55414E-05    31   0.361E-02    0.609E-03
RMM:  20    -0.404956717994E+02   -0.23420E-04   -0.60545E-05    30   0.383E-02    0.860E-03
RMM:  21    -0.404956774121E+02   -0.56128E-05   -0.13718E-06    23   0.845E-03    0.599E-03
RMM:  22    -0.404956824953E+02   -0.50831E-05   -0.14399E-05    30   0.182E-02    0.177E-03
RMM:  23    -0.404956832042E+02   -0.70890E-06   -0.17764E-07    25   0.315E-03
   1 F= -.40495683E+02 E0= -.40495683E+02  d E =-.189521E-09
