   4   4   0   0
  0.2000000E+04  0.2000000E-08  0.2000000E-08  0.2000000E-08  0.5000000E-15
  1.000000000000000E-004
  CAR 
 unknown system                          
      1.30333464    -19.57517508  301     -4.68183815      1.00000000
    -19.575  0.0000E+00  0.0000E+00
    -19.506  0.0000E+00  0.0000E+00
    -19.436  0.5247E-02  0.3652E-03
    -19.366  0.5275E-02  0.7323E-03
    -19.297  0.1057E-01  0.1468E-02
    -19.227  0.2118E-01  0.2942E-02
    -19.158  0.4239E-01  0.5892E-02
    -19.088  0.8464E-01  0.1178E-01
    -19.018  0.1683E+00  0.2349E-01
    -18.949  0.3316E+00  0.4657E-01
    -18.879  0.6422E+00  0.9126E-01
    -18.810  0.1203E+01  0.1750E+00
    -18.740  0.2121E+01  0.3226E+00
    -18.670  0.3364E+01  0.5567E+00
    -18.601  0.4535E+01  0.8724E+00
    -18.531  0.4940E+01  0.1216E+01
    -18.462  0.4274E+01  0.1514E+01
    -18.392  0.3020E+01  0.1724E+01
    -18.322  0.1843E+01  0.1852E+01
    -18.253  0.1025E+01  0.1923E+01
    -18.183  0.5412E+00  0.1961E+01
    -18.114  0.2779E+00  0.1980E+01
    -18.044  0.1406E+00  0.1990E+01
    -17.974  0.7062E-01  0.1995E+01
    -17.905  0.3534E-01  0.1998E+01
    -17.835  0.1765E-01  0.1999E+01
    -17.766  0.0000E+00  0.2000E+01
    -17.696  0.0000E+00  0.2000E+01
    -17.627  0.0000E+00  0.2000E+01
    -17.557  0.0000E+00  0.2000E+01
    -17.487  0.0000E+00  0.2000E+01
    -17.418  0.0000E+00  0.2000E+01
    -17.348  0.0000E+00  0.2000E+01
    -17.279  0.0000E+00  0.2000E+01
    -17.209  0.0000E+00  0.2000E+01
    -17.139  0.0000E+00  0.2000E+01
    -17.070  0.0000E+00  0.2000E+01
    -17.000  0.0000E+00  0.2000E+01
    -16.931  0.0000E+00  0.2000E+01
    -16.861  0.0000E+00  0.2000E+01
    -16.791  0.0000E+00  0.2000E+01
    -16.722  0.0000E+00  0.2000E+01
    -16.652  0.0000E+00  0.2000E+01
    -16.583  0.0000E+00  0.2000E+01
    -16.513  0.0000E+00  0.2000E+01
    -16.443  0.0000E+00  0.2000E+01
    -16.374  0.0000E+00  0.2000E+01
    -16.304  0.0000E+00  0.2000E+01
    -16.235  0.0000E+00  0.2000E+01
    -16.165  0.0000E+00  0.2000E+01
    -16.095  0.0000E+00  0.2000E+01
    -16.026  0.0000E+00  0.2000E+01
    -15.956  0.0000E+00  0.2000E+01
    -15.887  0.0000E+00  0.2000E+01
    -15.817  0.0000E+00  0.2000E+01
    -15.747  0.0000E+00  0.2000E+01
    -15.678  0.0000E+00  0.2000E+01
    -15.608  0.0000E+00  0.2000E+01
    -15.539  0.0000E+00  0.2000E+01
    -15.469  0.0000E+00  0.2000E+01
    -15.399  0.0000E+00  0.2000E+01
    -15.330  0.0000E+00  0.2000E+01
    -15.260  0.0000E+00  0.2000E+01
    -15.191  0.0000E+00  0.2000E+01
    -15.121  0.0000E+00  0.2000E+01
    -15.051  0.0000E+00  0.2000E+01
    -14.982  0.0000E+00  0.2000E+01
    -14.912  0.0000E+00  0.2000E+01
    -14.843  0.6248E-02  0.2000E+01
    -14.773  0.6280E-02  0.2001E+01
    -14.704  0.1259E-01  0.2002E+01
    -14.634  0.2521E-01  0.2004E+01
    -14.564  0.5043E-01  0.2007E+01
    -14.495  0.1006E+00  0.2014E+01
    -14.425  0.1997E+00  0.2028E+01
    -14.356  0.3922E+00  0.2055E+01
    -14.286  0.7547E+00  0.2108E+01
    -14.216  0.1397E+01  0.2205E+01
    -14.147  0.2410E+01  0.2373E+01
    -14.077  0.3690E+01  0.2629E+01
    -14.008  0.4734E+01  0.2959E+01
    -13.938  0.4866E+01  0.3298E+01
    -13.868  0.3985E+01  0.3575E+01
    -13.799  0.2699E+01  0.3763E+01
    -13.729  0.1601E+01  0.3874E+01
    -13.660  0.8766E+00  0.3935E+01
    -13.590  0.4588E+00  0.3967E+01
    -13.520  0.2344E+00  0.3984E+01
    -13.451  0.1184E+00  0.3992E+01
    -13.381  0.5938E-01  0.3996E+01
    -13.312  0.2970E-01  0.3998E+01
    -13.242  0.1483E-01  0.3999E+01
    -13.172  0.0000E+00  0.4000E+01
    -13.103  0.0000E+00  0.4000E+01
    -13.033  0.0000E+00  0.4000E+01
    -12.964  0.6089E-02  0.4000E+01
    -12.894  0.6121E-02  0.4001E+01
    -12.824  0.1227E-01  0.4002E+01
    -12.755  0.2457E-01  0.4003E+01
    -12.685  0.4916E-01  0.4007E+01
    -12.616  0.9809E-01  0.4014E+01
    -12.546  0.1947E+00  0.4027E+01
    -12.476  0.3826E+00  0.4054E+01
    -12.407  0.7371E+00  0.4105E+01
    -12.337  0.1367E+01  0.4200E+01
    -12.268  0.2366E+01  0.4365E+01
    -12.198  0.3643E+01  0.4618E+01
    -12.129  0.4709E+01  0.4946E+01
    -12.059  0.4882E+01  0.5286E+01
    -11.989  0.4029E+01  0.5566E+01
    -11.920  0.2746E+01  0.5757E+01
    -11.850  0.1635E+01  0.5871E+01
    -11.781  0.8972E+00  0.5934E+01
    -11.711  0.4701E+00  0.5966E+01
    -11.641  0.2404E+00  0.5983E+01
    -11.572  0.1214E+00  0.5992E+01
    -11.502  0.6091E-01  0.5996E+01
    -11.433  0.3047E-01  0.5998E+01
    -11.363  0.1522E-01  0.5999E+01
    -11.293  0.0000E+00  0.6000E+01
    -11.224  0.0000E+00  0.6000E+01
    -11.154  0.0000E+00  0.6000E+01
    -11.085  0.0000E+00  0.6000E+01
    -11.015  0.0000E+00  0.6000E+01
    -10.945  0.0000E+00  0.6000E+01
    -10.876  0.0000E+00  0.6000E+01
    -10.806  0.0000E+00  0.6000E+01
    -10.737  0.0000E+00  0.6000E+01
    -10.667  0.0000E+00  0.6000E+01
    -10.597  0.0000E+00  0.6000E+01
    -10.528  0.0000E+00  0.6000E+01
    -10.458  0.0000E+00  0.6000E+01
    -10.389  0.0000E+00  0.6000E+01
    -10.319  0.0000E+00  0.6000E+01
    -10.249  0.0000E+00  0.6000E+01
    -10.180  0.0000E+00  0.6000E+01
    -10.110  0.0000E+00  0.6000E+01
    -10.041  0.0000E+00  0.6000E+01
     -9.971  0.0000E+00  0.6000E+01
     -9.901  0.0000E+00  0.6000E+01
     -9.832  0.0000E+00  0.6000E+01
     -9.762  0.0000E+00  0.6000E+01
     -9.693  0.0000E+00  0.6000E+01
     -9.623  0.0000E+00  0.6000E+01
     -9.553  0.0000E+00  0.6000E+01
     -9.484  0.0000E+00  0.6000E+01
     -9.414  0.0000E+00  0.6000E+01
     -9.345  0.0000E+00  0.6000E+01
     -9.275  0.0000E+00  0.6000E+01
     -9.206  0.0000E+00  0.6000E+01
     -9.136  0.0000E+00  0.6000E+01
     -9.066  0.0000E+00  0.6000E+01
     -8.997  0.0000E+00  0.6000E+01
     -8.927  0.0000E+00  0.6000E+01
     -8.858  0.0000E+00  0.6000E+01
     -8.788  0.0000E+00  0.6000E+01
     -8.718  0.0000E+00  0.6000E+01
     -8.649  0.0000E+00  0.6000E+01
     -8.579  0.0000E+00  0.6000E+01
     -8.510  0.0000E+00  0.6000E+01
     -8.440  0.0000E+00  0.6000E+01
     -8.370  0.0000E+00  0.6000E+01
     -8.301  0.0000E+00  0.6000E+01
     -8.231  0.0000E+00  0.6000E+01
     -8.162  0.0000E+00  0.6000E+01
     -8.092  0.0000E+00  0.6000E+01
     -8.022  0.1067E-01  0.6001E+01
     -7.953  0.1072E-01  0.6001E+01
     -7.883  0.2149E-01  0.6003E+01
     -7.814  0.4306E-01  0.6006E+01
     -7.744  0.8617E-01  0.6012E+01
     -7.674  0.1720E+00  0.6024E+01
     -7.605  0.3420E+00  0.6048E+01
     -7.535  0.6737E+00  0.6095E+01
     -7.466  0.1304E+01  0.6185E+01
     -7.396  0.2441E+01  0.6355E+01
     -7.326  0.4294E+01  0.6654E+01
     -7.257  0.6789E+01  0.7127E+01
     -7.187  0.9113E+01  0.7761E+01
     -7.118  0.9873E+01  0.8448E+01
     -7.048  0.8496E+01  0.9039E+01
     -6.978  0.5980E+01  0.9455E+01
     -6.909  0.3638E+01  0.9709E+01
     -6.839  0.2021E+01  0.9849E+01
     -6.770  0.1066E+01  0.9923E+01
     -6.700  0.5469E+00  0.9961E+01
     -6.630  0.2767E+00  0.9981E+01
     -6.561  0.1390E+00  0.9990E+01
     -6.491  0.6954E-01  0.9995E+01
     -6.422  0.3474E-01  0.9998E+01
     -6.352  0.0000E+00  0.1000E+02
     -6.283  0.0000E+00  0.1000E+02
     -6.213  0.0000E+00  0.1000E+02
     -6.143  0.0000E+00  0.1000E+02
     -6.074  0.0000E+00  0.1000E+02
     -6.004  0.0000E+00  0.1000E+02
     -5.935  0.0000E+00  0.1000E+02
     -5.865  0.0000E+00  0.1000E+02
     -5.795  0.0000E+00  0.1000E+02
     -5.726  0.0000E+00  0.1000E+02
     -5.656  0.0000E+00  0.1000E+02
     -5.587  0.0000E+00  0.1000E+02
     -5.517  0.0000E+00  0.1000E+02
     -5.447  0.0000E+00  0.1000E+02
     -5.378  0.0000E+00  0.1000E+02
     -5.308  0.0000E+00  0.1000E+02
     -5.239  0.0000E+00  0.1000E+02
     -5.169  0.0000E+00  0.1000E+02
     -5.099  0.0000E+00  0.1000E+02
     -5.030  0.0000E+00  0.1000E+02
     -4.960  0.0000E+00  0.1000E+02
     -4.891  0.0000E+00  0.1000E+02
     -4.821  0.0000E+00  0.1000E+02
     -4.751  0.0000E+00  0.1000E+02
     -4.682  0.0000E+00  0.1000E+02
     -4.612  0.0000E+00  0.1000E+02
     -4.543  0.0000E+00  0.1000E+02
     -4.473  0.0000E+00  0.1000E+02
     -4.403  0.0000E+00  0.1000E+02
     -4.334  0.0000E+00  0.1000E+02
     -4.264  0.0000E+00  0.1000E+02
     -4.195  0.0000E+00  0.1000E+02
     -4.125  0.0000E+00  0.1000E+02
     -4.055  0.0000E+00  0.1000E+02
     -3.986  0.0000E+00  0.1000E+02
     -3.916  0.0000E+00  0.1000E+02
     -3.847  0.0000E+00  0.1000E+02
     -3.777  0.0000E+00  0.1000E+02
     -3.708  0.0000E+00  0.1000E+02
     -3.638  0.0000E+00  0.1000E+02
     -3.568  0.0000E+00  0.1000E+02
     -3.499  0.0000E+00  0.1000E+02
     -3.429  0.0000E+00  0.1000E+02
     -3.360  0.0000E+00  0.1000E+02
     -3.290  0.0000E+00  0.1000E+02
     -3.220  0.0000E+00  0.1000E+02
     -3.151  0.0000E+00  0.1000E+02
     -3.081  0.0000E+00  0.1000E+02
     -3.012  0.0000E+00  0.1000E+02
     -2.942  0.0000E+00  0.1000E+02
     -2.872  0.0000E+00  0.1000E+02
     -2.803  0.0000E+00  0.1000E+02
     -2.733  0.0000E+00  0.1000E+02
     -2.664  0.0000E+00  0.1000E+02
     -2.594  0.0000E+00  0.1000E+02
     -2.524  0.0000E+00  0.1000E+02
     -2.455  0.0000E+00  0.1000E+02
     -2.385  0.0000E+00  0.1000E+02
     -2.316  0.0000E+00  0.1000E+02
     -2.246  0.0000E+00  0.1000E+02
     -2.176  0.0000E+00  0.1000E+02
     -2.107  0.0000E+00  0.1000E+02
     -2.037  0.0000E+00  0.1000E+02
     -1.968  0.0000E+00  0.1000E+02
     -1.898  0.0000E+00  0.1000E+02
     -1.828  0.0000E+00  0.1000E+02
     -1.759  0.0000E+00  0.1000E+02
     -1.689  0.0000E+00  0.1000E+02
     -1.620  0.0000E+00  0.1000E+02
     -1.550  0.0000E+00  0.1000E+02
     -1.480  0.0000E+00  0.1000E+02
     -1.411  0.0000E+00  0.1000E+02
     -1.341  0.0000E+00  0.1000E+02
     -1.272  0.1185E-01  0.1000E+02
     -1.202  0.1191E-01  0.1000E+02
     -1.132  0.2388E-01  0.1000E+02
     -1.063  0.5376E-01  0.1001E+02
     -0.993  0.1016E+00  0.1001E+02
     -0.924  0.2029E+00  0.1003E+02
     -0.854  0.4031E+00  0.1006E+02
     -0.785  0.8003E+00  0.1011E+02
     -0.715  0.1547E+01  0.1022E+02
     -0.645  0.2882E+01  0.1042E+02
     -0.576  0.5055E+01  0.1077E+02
     -0.506  0.8005E+01  0.1133E+02
     -0.437  0.1088E+02  0.1209E+02
     -0.367  0.1248E+02  0.1296E+02
     -0.297  0.1247E+02  0.1382E+02
     -0.228  0.1168E+02  0.1464E+02
     -0.158  0.1088E+02  0.1539E+02
     -0.089  0.1059E+02  0.1613E+02
     -0.019  0.1132E+02  0.1692E+02
      0.051  0.1292E+02  0.1782E+02
      0.120  0.1447E+02  0.1882E+02
      0.190  0.1525E+02  0.1989E+02
      0.259  0.1518E+02  0.2094E+02
      0.329  0.1402E+02  0.2192E+02
      0.399  0.1139E+02  0.2271E+02
      0.468  0.7957E+01  0.2327E+02
      0.538  0.4872E+01  0.2361E+02
      0.607  0.2717E+01  0.2380E+02
      0.677  0.1440E+01  0.2390E+02
      0.747  0.7410E+00  0.2395E+02
      0.816  0.3754E+00  0.2397E+02
      0.886  0.1820E+00  0.2399E+02
      0.955  0.8445E-01  0.2399E+02
      1.025  0.4220E-01  0.2400E+02
      1.095  0.2107E-01  0.2400E+02
      1.164  0.0000E+00  0.2400E+02
      1.234  0.0000E+00  0.2400E+02
      1.303  0.0000E+00  0.2400E+02
