       N       E                     dE             d eps       ncg     rms          rms(c)
DAV:   1     0.425830410176E+02    0.42583E+02   -0.17357E+03    40   0.267E+02
DAV:   2    -0.156674122194E+02   -0.58250E+02   -0.58071E+02    32   0.838E+01
DAV:   3    -0.260933955346E+02   -0.10426E+02   -0.10412E+02    32   0.436E+01
DAV:   4    -0.264950811973E+02   -0.40169E+00   -0.40165E+00    48   0.107E+01    0.911E+00
RMM:   5    -0.235915764838E+02    0.29035E+01   -0.46991E+00    37   0.100E+01    0.475E+00
RMM:   6    -0.229845695607E+02    0.60701E+00   -0.32214E+00    37   0.780E+00    0.189E+00
RMM:   7    -0.229409578805E+02    0.43612E-01   -0.12024E-01    37   0.193E+00    0.227E-01
RMM:   8    -0.229362151965E+02    0.47427E-02   -0.17770E-02    38   0.546E-01    0.158E-01
RMM:   9    -0.229371378843E+02   -0.92269E-03   -0.20753E-02    31   0.533E-01    0.212E-01
RMM:  10    -0.229375218045E+02   -0.38392E-03   -0.21606E-03    37   0.210E-01    0.621E-02
RMM:  11    -0.229458963638E+02   -0.83746E-02   -0.62727E-03    27   0.348E-01    0.123E-01
RMM:  12    -0.229453434933E+02    0.55287E-03   -0.58163E-04    37   0.103E-01    0.675E-02
RMM:  13    -0.229485392637E+02   -0.31958E-02   -0.28113E-03    29   0.197E-01    0.352E-02
RMM:  14    -0.229493980670E+02   -0.85880E-03   -0.31709E-04    29   0.774E-02    0.116E-02
RMM:  15    -0.229498969656E+02   -0.49890E-03   -0.40035E-05    29   0.265E-02    0.101E-02
RMM:  16    -0.229501180480E+02   -0.22108E-03   -0.11558E-04    33   0.430E-02    0.127E-02
RMM:  17    -0.229502350567E+02   -0.11701E-03   -0.47352E-05    32   0.285E-02    0.381E-03
RMM:  18    -0.229502587456E+02   -0.23689E-04   -0.21625E-06    35   0.734E-03    0.407E-03
RMM:  19    -0.229502861267E+02   -0.27381E-04   -0.18433E-06    30   0.576E-03    0.481E-04
RMM:  20    -0.229502927739E+02   -0.66472E-05   -0.26022E-07    30   0.240E-03    0.106E-03
RMM:  21    -0.229502986692E+02   -0.58952E-05   -0.29189E-07    28   0.232E-03    0.155E-04
RMM:  22    -0.229502996180E+02   -0.94886E-06   -0.21136E-07    30   0.224E-03
   1 F= -.22950300E+02 E0= -.22950300E+02  d E =-.172737E-09
