<?xml version="1.0" encoding="ISO-8859-1"?>
<modeling>
 <generator>
  <i name="program" type="string">vasp </i>
  <i name="version" type="string">5.4.1  </i>
  <i name="subversion" type="string">24Jun15 (build Oct 10 2016 12:42:00) complex                          parallel </i>
  <i name="platform" type="string">IFC91_ompi </i>
  <i name="date" type="string">2018 07 05 </i>
  <i name="time" type="string">10:37:20 </i>
 </generator>
 <incar>
  <i type="string" name="PREC">normal</i>
  <i type="string" name="ALGO"> fast</i>
  <i type="int" name="ISPIN">     1</i>
  <i type="int" name="NELMDL">    -4</i>
  <i type="int" name="NELMIN">     4</i>
  <i name="EDIFF">      0.00000100</i>
  <i name="ENCUT">    400.00000000</i>
  <i type="string" name="LREAL"> auto</i>
  <i type="int" name="ISMEAR">    -1</i>
  <i name="SIGMA">      0.10000000</i>
  <i type="logical" name="LWAVE"> F  </i>
  <i type="logical" name="LCHARG"> F  </i>
  <v type="int" name="KPOINT_BSE">    -1     0     0     0</v>
  <i type="string" name="GGA"> PE</i>
 </incar>
 <kpoints>
  <generation param="Monkhorst-Pack">
   <v type="int" name="divisions">       1        1        1 </v>
   <v name="usershift">      0.00000000       0.00000000       0.00000000 </v>
   <v name="genvec1">      1.00000000       0.00000000       0.00000000 </v>
   <v name="genvec2">      0.00000000       1.00000000       0.00000000 </v>
   <v name="genvec3">      0.00000000       0.00000000       1.00000000 </v>
   <v name="shift">      0.00000000       0.00000000       0.00000000 </v>
  </generation>
  <varray name="kpointlist" >
   <v>       0.00000000       0.00000000       0.00000000 </v>
  </varray>
  <varray name="weights" >
   <v>       1.00000000 </v>
  </varray>
 </kpoints>
 <parameters>
  <separator name="general" >
   <i type="string" name="SYSTEM">unknown system</i>
   <i type="logical" name="LCOMPAT"> F  </i>
  </separator>
  <separator name="electronic" >
   <i type="string" name="PREC">normal</i>
   <i name="ENMAX">    400.00000000</i>
   <i name="ENAUG">    644.87300000</i>
   <i name="EDIFF">      0.00000100</i>
   <i type="int" name="IALGO">    68</i>
   <i type="int" name="IWAVPR">    10</i>
   <i type="int" name="NBANDS">    12</i>
   <i name="NELECT">     10.00000000</i>
   <i type="int" name="TURBO">     0</i>
   <i type="int" name="IRESTART">     0</i>
   <i type="int" name="NREBOOT">     0</i>
   <i type="int" name="NMIN">     0</i>
   <i name="EREF">      0.00000000</i>
   <separator name="electronic smearing" >
    <i type="int" name="ISMEAR">    -1</i>
    <i name="SIGMA">      0.10000000</i>
    <i name="KSPACING">      0.50000000</i>
    <i type="logical" name="KGAMMA"> T  </i>
   </separator>
   <separator name="electronic projectors" >
    <i type="logical" name="LREAL"> T  </i>
    <v name="ROPT">     -0.00050000     -0.00050000</v>
    <i type="int" name="LMAXPAW">  -100</i>
    <i type="int" name="LMAXMIX">     2</i>
    <i type="logical" name="NLSPLINE"> F  </i>
   </separator>
   <separator name="electronic startup" >
    <i type="int" name="ISTART">     0</i>
    <i type="int" name="ICHARG">     2</i>
    <i type="int" name="INIWAV">     1</i>
   </separator>
   <separator name="electronic spin" >
    <i type="int" name="ISPIN">     1</i>
    <i type="logical" name="LNONCOLLINEAR"> F  </i>
    <v name="MAGMOM">      1.00000000      1.00000000      1.00000000      1.00000000</v>
    <i name="NUPDOWN">     -1.00000000</i>
    <i type="logical" name="LSORBIT"> F  </i>
    <v name="SAXIS">      0.00000000      0.00000000      1.00000000</v>
    <i type="logical" name="LSPIRAL"> F  </i>
    <v name="QSPIRAL">      0.00000000      0.00000000      0.00000000</v>
    <i type="logical" name="LZEROZ"> F  </i>
   </separator>
   <separator name="electronic exchange-correlation" >
    <i type="logical" name="LASPH"> F  </i>
    <i type="logical" name="LMETAGGA"> F  </i>
   </separator>
   <separator name="electronic convergence" >
    <i type="int" name="NELM">    60</i>
    <i type="int" name="NELMDL">    -4</i>
    <i type="int" name="NELMIN">     4</i>
    <i name="ENINI">    400.00000000</i>
    <separator name="electronic convergence detail" >
     <i type="logical" name="LDIAG"> T  </i>
     <i type="logical" name="LSUBROT"> F  </i>
     <i name="WEIMIN">      0.00000000</i>
     <i name="EBREAK">      0.00000002</i>
     <i name="DEPER">      0.30000000</i>
     <i type="int" name="NRMM">     4</i>
     <i name="TIME">      0.40000000</i>
    </separator>
   </separator>
   <separator name="electronic mixer" >
    <i name="AMIX">      0.40000000</i>
    <i name="BMIX">      1.00000000</i>
    <i name="AMIN">      0.10000000</i>
    <i name="AMIX_MAG">      1.60000000</i>
    <i name="BMIX_MAG">      1.00000000</i>
    <separator name="electronic mixer details" >
     <i type="int" name="IMIX">     4</i>
     <i type="logical" name="MIXFIRST"> F  </i>
     <i type="int" name="MAXMIX">   -45</i>
     <i name="WC">    100.00000000</i>
     <i type="int" name="INIMIX">     1</i>
     <i type="int" name="MIXPRE">     1</i>
     <i type="int" name="MREMOVE">     5</i>
    </separator>
   </separator>
   <separator name="electronic dipolcorrection" >
    <i type="logical" name="LDIPOL"> F  </i>
    <i type="logical" name="LMONO"> F  </i>
    <i type="int" name="IDIPOL">     0</i>
    <i name="EPSILON">      1.00000000</i>
    <v name="DIPOL">   -100.00000000   -100.00000000   -100.00000000</v>
    <i name="EFIELD">      0.00000000</i>
   </separator>
  </separator>
  <separator name="grids" >
   <i type="int" name="NGX">    98</i>
   <i type="int" name="NGY">    98</i>
   <i type="int" name="NGZ">    98</i>
   <i type="int" name="NGXF">   196</i>
   <i type="int" name="NGYF">   196</i>
   <i type="int" name="NGZF">   196</i>
   <i type="logical" name="ADDGRID"> F  </i>
  </separator>
  <separator name="ionic" >
   <i type="int" name="NSW">     0</i>
   <i type="int" name="IBRION">    -1</i>
   <i type="int" name="ISIF">     2</i>
   <i name="PSTRESS">      0.00000000</i>
   <i name="EDIFFG">      0.00001000</i>
   <i type="int" name="NFREE">     0</i>
   <i name="POTIM">      0.50000000</i>
   <i name="SMASS">     -3.00000000</i>
   <i name="SCALEE">      1.00000000</i>
  </separator>
  <separator name="ionic md" >
   <i name="TEBEG">      0.00010000</i>
   <i name="TEEND">      0.00010000</i>
   <i type="int" name="NBLOCK">     1</i>
   <i type="int" name="KBLOCK">     1</i>
   <i type="int" name="NPACO">   256</i>
   <i name="APACO">     16.00000000</i>
  </separator>
  <separator name="symmetry" >
   <i type="int" name="ISYM">     2</i>
   <i name="SYMPREC">      0.00001000</i>
  </separator>
  <separator name="dos" >
   <i type="logical" name="LORBIT"> F  </i>
   <v name="RWIGS">     -1.00000000     -1.00000000</v>
   <i type="int" name="NEDOS">   301</i>
   <i name="EMIN">     10.00000000</i>
   <i name="EMAX">    -10.00000000</i>
   <i name="EFERMI">      0.00000000</i>
  </separator>
  <separator name="writing" >
   <i type="int" name="NWRITE">     2</i>
   <i type="logical" name="LWAVE"> F  </i>
   <i type="logical" name="LCHARG"> F  </i>
   <i type="logical" name="LPARD"> F  </i>
   <i type="logical" name="LVTOT"> F  </i>
   <i type="logical" name="LVHAR"> F  </i>
   <i type="logical" name="LELF"> F  </i>
   <i type="logical" name="LOPTICS"> F  </i>
   <v name="STM">      0.00000000      0.00000000      0.00000000      0.00000000      0.00000000      0.00000000      0.00000000</v>
  </separator>
  <separator name="performance" >
   <i type="int" name="NPAR">     4</i>
   <i type="int" name="NSIM">     4</i>
   <i type="int" name="NBLK">    -1</i>
   <i type="logical" name="LPLANE"> T  </i>
   <i type="logical" name="LSCALAPACK"> T  </i>
   <i type="logical" name="LSCAAWARE"> F  </i>
   <i type="logical" name="LSCALU"> F  </i>
   <i type="logical" name="LASYNC"> F  </i>
   <i type="logical" name="LORBITALREAL"> F  </i>
  </separator>
  <separator name="miscellaneous" >
   <i type="int" name="IDIOT">     3</i>
   <i type="logical" name="LMUSIC"> F  </i>
   <v name="POMASS">     12.01100000      1.00000000</v>
   <v name="DARWINR">      0.00000000      0.00000000</v>
   <v name="DARWINV">      1.00000000      1.00000000</v>
   <i type="logical" name="LCORR"> T  </i>
  </separator>
  <i type="logical" name="GGA_COMPAT"> T  </i>
  <i type="logical" name="LBERRY"> F  </i>
  <i type="int" name="ICORELEVEL">     0</i>
  <i type="logical" name="LDAU"> F  </i>
  <i type="int" name="I_CONSTRAINED_M">     0</i>
  <separator name="electronic exchange-correlation" >
   <i type="string" name="GGA">PE</i>
   <i type="int" name="VOSKOWN">     0</i>
   <i type="logical" name="LHFCALC"> F  </i>
   <i type="string" name="PRECFOCK"></i>
   <i type="logical" name="LSYMGRAD"> F  </i>
   <i type="logical" name="LHFONE"> F  </i>
   <i type="logical" name="LRHFCALC"> F  </i>
   <i type="logical" name="LTHOMAS"> F  </i>
   <i type="logical" name="LMODELHF"> F  </i>
   <i name="ENCUT4O">     -1.00000000</i>
   <i type="int" name="EXXOEP">     0</i>
   <i type="int" name="FOURORBIT">     0</i>
   <i name="AEXX">      0.00000000</i>
   <i name="HFALPHA">      0.00000000</i>
   <i name="MCALPHA">      0.00000000</i>
   <i name="ALDAX">      1.00000000</i>
   <i name="AGGAX">      1.00000000</i>
   <i name="ALDAC">      1.00000000</i>
   <i name="AGGAC">      1.00000000</i>
   <i type="int" name="NKREDX">     1</i>
   <i type="int" name="NKREDY">     1</i>
   <i type="int" name="NKREDZ">     1</i>
   <i type="logical" name="SHIFTRED"> F  </i>
   <i type="logical" name="ODDONLY"> F  </i>
   <i type="logical" name="EVENONLY"> F  </i>
   <i type="int" name="LMAXFOCK">     0</i>
   <i type="int" name="NMAXFOCKAE">     0</i>
   <i type="logical" name="LFOCKAEDFT"> F  </i>
   <i name="HFSCREEN">      0.00000000</i>
   <i name="HFSCREENC">      0.00000000</i>
   <i type="int" name="NBANDSGWLOW">     0</i>
  </separator>
  <separator name="vdW DFT" >
   <i type="logical" name="LUSE_VDW"> F  </i>
   <i name="Zab_VDW">     -0.84910000</i>
   <i name="PARAM1">      0.12340000</i>
   <i name="PARAM2">      1.00000000</i>
   <i name="PARAM3">      0.00000000</i>
  </separator>
  <separator name="model GW" >
   <i type="int" name="MODEL_GW">     0</i>
   <i name="MODEL_EPS0">   1200.00000000</i>
   <i name="MODEL_ALPHA">      1.00000000</i>
  </separator>
  <separator name="linear response parameters" >
   <i type="logical" name="LEPSILON"> F  </i>
   <i type="logical" name="LRPA"> F  </i>
   <i type="logical" name="LNABLA"> F  </i>
   <i type="logical" name="LVEL"> F  </i>
   <i type="int" name="KINTER">     0</i>
   <i name="CSHIFT">      0.10000000</i>
   <i name="OMEGAMAX">     -1.00000000</i>
   <i name="DEG_THRESHOLD">      0.00200000</i>
  </separator>
  <separator name="orbital magnetization" >
   <i type="logical" name="NUCIND"> F  </i>
   <v name="MAGPOS">      0.00000000      0.00000000      0.00000000</v>
   <i type="logical" name="LNICSALL"> T  </i>
   <i type="logical" name="ORBITALMAG"> F  </i>
   <i type="logical" name="LMAGBLOCH"> F  </i>
   <i type="logical" name="LCHIMAG"> F  </i>
   <i type="logical" name="LGAUGE"> T  </i>
   <i type="int" name="MAGATOM">     0</i>
   <v name="MAGDIPOL">      0.00000000      0.00000000      0.00000000</v>
   <v name="AVECCONST">      0.00000000      0.00000000      0.00000000</v>
  </separator>
  <separator name="response functions" >
   <i type="logical" name="LADDER"> F  </i>
   <i type="logical" name="LFXC"> F  </i>
   <i type="logical" name="LHARTREE"> T  </i>
   <i type="int" name="IBSE">     0</i>
   <v type="int" name="KPOINT">    -1     0     0     0</v>
   <i type="logical" name="LTCTE"> F  </i>
   <i type="logical" name="LTETE"> F  </i>
   <i type="logical" name="LTRIPLET"> F  </i>
   <i type="logical" name="LFXCEPS"> F  </i>
   <i type="logical" name="LFXHEG"> F  </i>
   <i type="int" name="NATURALO">     0</i>
   <i type="logical" name="L2ORDER"> F  </i>
   <i type="logical" name="LUSEW"> F  </i>
   <i name="ENCUTGW">     -2.00000000</i>
   <i name="ENCUTGWSOFT">     -2.00000000</i>
   <i name="ENCUTLF">     -1.00000000</i>
   <i type="int" name="LMAXMP2">    -1</i>
   <i name="SCISSOR">      0.00000000</i>
   <i type="int" name="NOMEGA">     0</i>
   <i type="int" name="NOMEGAR">     0</i>
   <i type="int" name="NBANDSGW">    -1</i>
   <i type="int" name="NBANDSO">    -1</i>
   <i type="int" name="NBANDSV">    -1</i>
   <i type="int" name="NELM">     1</i>
   <i type="int" name="NELMHF">     1</i>
   <i type="int" name="DIM">     3</i>
   <i type="int" name="ANTIRES">     0</i>
   <i name="OMEGAMAX">    -30.00000000</i>
   <i name="OMEGAMIN">    -30.00000000</i>
   <i name="OMEGATL">   -200.00000000</i>
   <i type="int" name="OMEGAGRID">     0</i>
   <i name="CSHIFT">     -0.10000000</i>
   <i type="logical" name="SELFENERGY"> F  </i>
   <i type="logical" name="LSPECTRAL"> F  </i>
   <i type="logical" name="LSPECTRALGW"> F  </i>
   <i type="logical" name="LSINGLES"> F  </i>
   <i type="logical" name="LFERMIGW"> F  </i>
   <i type="logical" name="ODDONLYGW"> F  </i>
   <i type="logical" name="EVENONLYGW"> F  </i>
   <i type="int" name="NKREDLFX">     1</i>
   <i type="int" name="NKREDLFY">     1</i>
   <i type="int" name="NKREDLFZ">     1</i>
   <i type="int" name="MAXMEM">  1800</i>
   <i type="int" name="TELESCOPE">     0</i>
   <i type="int" name="TAUPAR">     1</i>
   <i type="int" name="OMEGAPAR">    -1</i>
   <i name="LAMBDA">      1.00000000</i>
  </separator>
  <separator name="External order field" >
   <i name="OFIELD_KAPPA">      0.00000000</i>
   <v name="OFIELD_K">      0.00000000      0.00000000      0.00000000</v>
   <i name="OFIELD_Q6_NEAR">      0.00000000</i>
   <i name="OFIELD_Q6_FAR">      0.00000000</i>
   <i name="OFIELD_A">      0.00000000</i>
  </separator>
 </parameters>
 <atominfo>
  <atoms>       4 </atoms>
  <types>       2 </types>
  <array name="atoms" >
   <dimension dim="1">ion</dimension>
   <field type="string">element</field>
   <field type="int">atomtype</field>
   <set>
    <rc><c>C </c><c>   1</c></rc>
    <rc><c>C </c><c>   1</c></rc>
    <rc><c>H </c><c>   2</c></rc>
    <rc><c>H </c><c>   2</c></rc>
   </set>
  </array>
  <array name="atomtypes" >
   <dimension dim="1">type</dimension>
   <field type="int">atomspertype</field>
   <field type="string">element</field>
   <field>mass</field>
   <field>valence</field>
   <field type="string">pseudopotential</field>
   <set>
    <rc><c>   2</c><c>C </c><c>     12.01100000</c><c>      4.00000000</c><c>  PAW_PBE C 08Apr2002                   </c></rc>
    <rc><c>   2</c><c>H </c><c>      1.00000000</c><c>      1.00000000</c><c>  PAW_PBE H 15Jun2001                   </c></rc>
   </set>
  </array>
 </atominfo>
 <structure name="initialpos" >
  <crystal>
   <varray name="basis" >
    <v>      20.00000000       0.00000000       0.00000000 </v>
    <v>       0.00000000      20.00000000       0.00000000 </v>
    <v>       0.00000000       0.00000000      20.00000000 </v>
   </varray>
   <i name="volume">   8000.00000000 </i>
   <varray name="rec_basis" >
    <v>       0.05000000       0.00000000       0.00000000 </v>
    <v>       0.00000000       0.05000000       0.00000000 </v>
    <v>       0.00000000       0.00000000       0.05000000 </v>
   </varray>
  </crystal>
  <varray name="positions" >
   <v>       0.50000000       0.50000000       0.53019224 </v>
   <v>       0.50000000       0.50000000       0.46980776 </v>
   <v>       0.50000000       0.50000000       0.41625830 </v>
   <v>       0.50000000       0.50000000       0.58374170 </v>
  </varray>
 </structure>
 <calculation>
  <scstep>
   <time name="dav">    0.49    0.49</time>
   <time name="total">    0.96    1.01</time>
   <energy>
    <i name="alphaZ">      0.05743212 </i>
    <i name="ewald">    251.37661328 </i>
    <i name="hartreedc">   -460.57160867 </i>
    <i name="XCdc">     29.05467411 </i>
    <i name="pawpsdc">    221.31214763 </i>
    <i name="pawaedc">   -222.46871482 </i>
    <i name="eentropy">     -0.00407594 </i>
    <i name="bandstr">    -95.38513977 </i>
    <i name="atom">    319.21171307 </i>
    <i name="e_fr_energy">     42.58304102 </i>
    <i name="e_wo_entrp">     42.58711695 </i>
    <i name="e_0_energy">     42.58507899 </i>
   </energy>
  </scstep>
  <scstep>
   <time name="dav">    0.48    0.55</time>
   <time name="total">    0.48    0.57</time>
   <energy>
    <i name="e_fr_energy">    -15.66741222 </i>
    <i name="e_wo_entrp">    -15.66741222 </i>
    <i name="e_0_energy">    -15.66741222 </i>
   </energy>
  </scstep>
  <scstep>
   <time name="dav">    0.45    0.45</time>
   <time name="total">    0.45    0.47</time>
   <energy>
    <i name="e_fr_energy">    -26.09339553 </i>
    <i name="e_wo_entrp">    -26.09339553 </i>
    <i name="e_0_energy">    -26.09339553 </i>
   </energy>
  </scstep>
  <scstep>
   <time name="dav">    0.60    0.68</time>
   <time name="total">    0.77    0.85</time>
   <energy>
    <i name="e_fr_energy">    -26.49508120 </i>
    <i name="e_wo_entrp">    -26.49508120 </i>
    <i name="e_0_energy">    -26.49508120 </i>
   </energy>
  </scstep>
  <scstep>
   <time name="diag">    0.08    0.08</time>
   <time name="diis">    0.45    0.45</time>
   <time name="orth">    0.01    0.01</time>
   <time name="total">    1.14    1.14</time>
   <energy>
    <i name="e_fr_energy">    -23.59157648 </i>
    <i name="e_wo_entrp">    -23.59157648 </i>
    <i name="e_0_energy">    -23.59157648 </i>
   </energy>
  </scstep>
  <scstep>
   <time name="diag">    0.08    0.08</time>
   <time name="diis">    0.45    0.45</time>
   <time name="orth">    0.01    0.01</time>
   <time name="total">    1.13    1.14</time>
   <energy>
    <i name="e_fr_energy">    -22.98456956 </i>
    <i name="e_wo_entrp">    -22.98456956 </i>
    <i name="e_0_energy">    -22.98456956 </i>
   </energy>
  </scstep>
  <scstep>
   <time name="diag">    0.08    0.08</time>
   <time name="diis">    0.47    0.47</time>
   <time name="orth">    0.11    0.11</time>
   <time name="total">    1.25    1.25</time>
   <energy>
    <i name="e_fr_energy">    -22.94095788 </i>
    <i name="e_wo_entrp">    -22.94095788 </i>
    <i name="e_0_energy">    -22.94095788 </i>
   </energy>
  </scstep>
  <scstep>
   <time name="diag">    0.08    0.08</time>
   <time name="diis">    0.49    0.49</time>
   <time name="orth">    0.01    0.01</time>
   <time name="total">    1.17    1.17</time>
   <energy>
    <i name="e_fr_energy">    -22.93621520 </i>
    <i name="e_wo_entrp">    -22.93621520 </i>
    <i name="e_0_energy">    -22.93621520 </i>
   </energy>
  </scstep>
  <scstep>
   <time name="diag">    0.08    0.08</time>
   <time name="diis">    0.40    0.40</time>
   <time name="orth">    0.01    0.01</time>
   <time name="total">    1.08    1.23</time>
   <energy>
    <i name="e_fr_energy">    -22.93713788 </i>
    <i name="e_wo_entrp">    -22.93713788 </i>
    <i name="e_0_energy">    -22.93713788 </i>
   </energy>
  </scstep>
  <scstep>
   <time name="diag">    0.08    0.08</time>
   <time name="diis">    0.48    0.48</time>
   <time name="orth">    0.08    0.08</time>
   <time name="total">    1.23    1.24</time>
   <energy>
    <i name="e_fr_energy">    -22.93752180 </i>
    <i name="e_wo_entrp">    -22.93752180 </i>
    <i name="e_0_energy">    -22.93752180 </i>
   </energy>
  </scstep>
  <scstep>
   <time name="diag">    0.08    0.08</time>
   <time name="diis">    0.33    0.33</time>
   <time name="orth">    0.01    0.01</time>
   <time name="total">    1.09    1.09</time>
   <energy>
    <i name="e_fr_energy">    -22.94589636 </i>
    <i name="e_wo_entrp">    -22.94589636 </i>
    <i name="e_0_energy">    -22.94589636 </i>
   </energy>
  </scstep>
  <scstep>
   <time name="diag">    0.08    0.08</time>
   <time name="diis">    0.46    0.46</time>
   <time name="orth">    0.01    0.01</time>
   <time name="total">    1.25    1.25</time>
   <energy>
    <i name="e_fr_energy">    -22.94534349 </i>
    <i name="e_wo_entrp">    -22.94534349 </i>
    <i name="e_0_energy">    -22.94534349 </i>
   </energy>
  </scstep>
  <scstep>
   <time name="diag">    0.08    0.08</time>
   <time name="diis">    0.34    0.34</time>
   <time name="orth">    0.01    0.01</time>
   <time name="total">    1.09    1.09</time>
   <energy>
    <i name="e_fr_energy">    -22.94853926 </i>
    <i name="e_wo_entrp">    -22.94853926 </i>
    <i name="e_0_energy">    -22.94853926 </i>
   </energy>
  </scstep>
  <scstep>
   <time name="diag">    0.08    0.08</time>
   <time name="diis">    0.34    0.35</time>
   <time name="orth">    0.01    0.01</time>
   <time name="total">    1.09    1.11</time>
   <energy>
    <i name="e_fr_energy">    -22.94939807 </i>
    <i name="e_wo_entrp">    -22.94939807 </i>
    <i name="e_0_energy">    -22.94939807 </i>
   </energy>
  </scstep>
  <scstep>
   <time name="diag">    0.08    0.08</time>
   <time name="diis">    0.35    0.35</time>
   <time name="orth">    0.01    0.01</time>
   <time name="total">    1.10    1.10</time>
   <energy>
    <i name="e_fr_energy">    -22.94989697 </i>
    <i name="e_wo_entrp">    -22.94989697 </i>
    <i name="e_0_energy">    -22.94989697 </i>
   </energy>
  </scstep>
  <scstep>
   <time name="diag">    0.08    0.08</time>
   <time name="diis">    0.39    0.39</time>
   <time name="orth">    0.01    0.01</time>
   <time name="total">    1.15    1.16</time>
   <energy>
    <i name="e_fr_energy">    -22.95011805 </i>
    <i name="e_wo_entrp">    -22.95011805 </i>
    <i name="e_0_energy">    -22.95011805 </i>
   </energy>
  </scstep>
  <scstep>
   <time name="diag">    0.08    0.08</time>
   <time name="diis">    0.40    0.40</time>
   <time name="orth">    0.01    0.01</time>
   <time name="total">    1.15    1.15</time>
   <energy>
    <i name="e_fr_energy">    -22.95023506 </i>
    <i name="e_wo_entrp">    -22.95023506 </i>
    <i name="e_0_energy">    -22.95023506 </i>
   </energy>
  </scstep>
  <scstep>
   <time name="diag">    0.08    0.08</time>
   <time name="diis">    0.44    0.44</time>
   <time name="orth">    0.01    0.01</time>
   <time name="total">    1.18    1.18</time>
   <energy>
    <i name="e_fr_energy">    -22.95025875 </i>
    <i name="e_wo_entrp">    -22.95025875 </i>
    <i name="e_0_energy">    -22.95025875 </i>
   </energy>
  </scstep>
  <scstep>
   <time name="diag">    0.08    0.08</time>
   <time name="diis">    0.37    0.37</time>
   <time name="orth">    0.01    0.01</time>
   <time name="total">    1.14    1.14</time>
   <energy>
    <i name="e_fr_energy">    -22.95028613 </i>
    <i name="e_wo_entrp">    -22.95028613 </i>
    <i name="e_0_energy">    -22.95028613 </i>
   </energy>
  </scstep>
  <scstep>
   <time name="diag">    0.14    0.14</time>
   <time name="diis">    0.37    0.38</time>
   <time name="orth">    0.01    0.01</time>
   <time name="total">    1.17    1.17</time>
   <energy>
    <i name="e_fr_energy">    -22.95029277 </i>
    <i name="e_wo_entrp">    -22.95029277 </i>
    <i name="e_0_energy">    -22.95029277 </i>
   </energy>
  </scstep>
  <scstep>
   <time name="diag">    0.14    0.14</time>
   <time name="diis">    0.35    0.35</time>
   <time name="orth">    0.01    0.01</time>
   <time name="total">    1.11    1.12</time>
   <energy>
    <i name="e_fr_energy">    -22.95029867 </i>
    <i name="e_wo_entrp">    -22.95029867 </i>
    <i name="e_0_energy">    -22.95029867 </i>
   </energy>
  </scstep>
  <scstep>
   <time name="diag">    0.10    0.10</time>
   <time name="diis">    0.37    0.37</time>
   <time name="orth">    0.01    0.01</time>
   <time name="total">    0.93    0.93</time>
   <energy>
    <i name="alphaZ">      0.05743212 </i>
    <i name="ewald">    251.37661328 </i>
    <i name="hartreedc">   -505.69199772 </i>
    <i name="XCdc">     31.56430290 </i>
    <i name="pawpsdc">    838.73058285 </i>
    <i name="pawaedc">   -840.16151584 </i>
    <i name="eentropy">     -0.00000000 </i>
    <i name="bandstr">   -118.03743027 </i>
    <i name="atom">    319.21171307 </i>
    <i name="e_fr_energy">    -22.95029962 </i>
    <i name="e_wo_entrp">    -22.95029962 </i>
    <i name="e_0_energy">    -22.95029962 </i>
   </energy>
  </scstep>
  <structure>
   <crystal>
    <varray name="basis" >
     <v>      20.00000000       0.00000000       0.00000000 </v>
     <v>       0.00000000      20.00000000       0.00000000 </v>
     <v>       0.00000000       0.00000000      20.00000000 </v>
    </varray>
    <i name="volume">   8000.00000000 </i>
    <varray name="rec_basis" >
     <v>       0.05000000       0.00000000       0.00000000 </v>
     <v>       0.00000000       0.05000000       0.00000000 </v>
     <v>       0.00000000       0.00000000       0.05000000 </v>
    </varray>
   </crystal>
   <varray name="positions" >
    <v>       0.50000000       0.50000000       0.53019224 </v>
    <v>       0.50000000       0.50000000       0.46980776 </v>
    <v>       0.50000000       0.50000000       0.41625830 </v>
    <v>       0.50000000       0.50000000       0.58374170 </v>
   </varray>
  </structure>
  <varray name="forces" >
   <v>       0.00000000       0.00000000      -0.00320989 </v>
   <v>       0.00000000      -0.00000000       0.00320989 </v>
   <v>       0.00000000      -0.00000000       0.00465475 </v>
   <v>      -0.00000000       0.00000000      -0.00465475 </v>
  </varray>
  <varray name="stress" >
   <v>      -0.08277677       0.00000000       0.00000000 </v>
   <v>       0.00000000      -0.08277677       0.00000000 </v>
   <v>       0.00000000      -0.00000000      -0.06512738 </v>
  </varray>
  <energy>
   <i name="e_fr_energy">    -22.95029962 </i>
   <i name="e_wo_entrp">    -22.95029962 </i>
   <i name="e_0_energy">     -0.00000000 </i>
  </energy>
  <time name="totalsc">   24.82   25.28</time>
  <eigenvalues>
   <array>
    <dimension dim="1">band</dimension>
    <dimension dim="2">kpoint</dimension>
    <dimension dim="3">spin</dimension>
    <field>eigene</field>
    <field>occ</field>
    <set>
     <set comment="spin 1">
      <set comment="kpoint 1">
       <r>  -18.5752    1.0000 </r>
       <r>  -13.9994    1.0000 </r>
       <r>  -12.1177    1.0000 </r>
       <r>   -7.1632    1.0000 </r>
       <r>   -7.1632    1.0000 </r>
       <r>   -0.4230    0.0000 </r>
       <r>   -0.4230    0.0000 </r>
       <r>   -0.2144    0.0000 </r>
       <r>    0.0481    0.0000 </r>
       <r>    0.1182    0.0000 </r>
       <r>    0.3026    0.0000 </r>
       <r>    0.3033    0.0000 </r>
      </set>
     </set>
    </set>
   </array>
  </eigenvalues>
  <separator name="orbital magnetization" >
   <v name="MAGDIPOLOUT">      0.00000000      0.00000000      0.00000000</v>
  </separator>
  <dos>
   <i name="efermi">     -4.68183815 </i>
   <total>
    <array>
     <dimension dim="1">gridpoints</dimension>
     <dimension dim="2">spin</dimension>
     <field>energy</field>
     <field>total</field>
     <field>integrated</field>
     <set>
      <set comment="spin 1">
       <r>   -19.5752     0.0000     0.0000 </r>
       <r>   -19.5056     0.0000     0.0000 </r>
       <r>   -19.4360     0.0052     0.0004 </r>
       <r>   -19.3664     0.0053     0.0007 </r>
       <r>   -19.2968     0.0106     0.0015 </r>
       <r>   -19.2272     0.0212     0.0029 </r>
       <r>   -19.1576     0.0424     0.0059 </r>
       <r>   -19.0880     0.0846     0.0118 </r>
       <r>   -19.0184     0.1683     0.0235 </r>
       <r>   -18.9488     0.3316     0.0466 </r>
       <r>   -18.8792     0.6422     0.0913 </r>
       <r>   -18.8096     1.2033     0.1750 </r>
       <r>   -18.7400     2.1208     0.3226 </r>
       <r>   -18.6704     3.3639     0.5567 </r>
       <r>   -18.6008     4.5355     0.8724 </r>
       <r>   -18.5312     4.9402     1.2162 </r>
       <r>   -18.4617     4.2738     1.5136 </r>
       <r>   -18.3921     3.0204     1.7238 </r>
       <r>   -18.3225     1.8427     1.8520 </r>
       <r>   -18.2529     1.0251     1.9234 </r>
       <r>   -18.1833     0.5412     1.9611 </r>
       <r>   -18.1137     0.2779     1.9804 </r>
       <r>   -18.0441     0.1406     1.9902 </r>
       <r>   -17.9745     0.0706     1.9951 </r>
       <r>   -17.9049     0.0353     1.9975 </r>
       <r>   -17.8353     0.0177     1.9988 </r>
       <r>   -17.7657     0.0000     2.0000 </r>
       <r>   -17.6961     0.0000     2.0000 </r>
       <r>   -17.6265     0.0000     2.0000 </r>
       <r>   -17.5569     0.0000     2.0000 </r>
       <r>   -17.4873     0.0000     2.0000 </r>
       <r>   -17.4177     0.0000     2.0000 </r>
       <r>   -17.3481     0.0000     2.0000 </r>
       <r>   -17.2785     0.0000     2.0000 </r>
       <r>   -17.2089     0.0000     2.0000 </r>
       <r>   -17.1393     0.0000     2.0000 </r>
       <r>   -17.0698     0.0000     2.0000 </r>
       <r>   -17.0002     0.0000     2.0000 </r>
       <r>   -16.9306     0.0000     2.0000 </r>
       <r>   -16.8610     0.0000     2.0000 </r>
       <r>   -16.7914     0.0000     2.0000 </r>
       <r>   -16.7218     0.0000     2.0000 </r>
       <r>   -16.6522     0.0000     2.0000 </r>
       <r>   -16.5826     0.0000     2.0000 </r>
       <r>   -16.5130     0.0000     2.0000 </r>
       <r>   -16.4434     0.0000     2.0000 </r>
       <r>   -16.3738     0.0000     2.0000 </r>
       <r>   -16.3042     0.0000     2.0000 </r>
       <r>   -16.2346     0.0000     2.0000 </r>
       <r>   -16.1650     0.0000     2.0000 </r>
       <r>   -16.0954     0.0000     2.0000 </r>
       <r>   -16.0258     0.0000     2.0000 </r>
       <r>   -15.9562     0.0000     2.0000 </r>
       <r>   -15.8866     0.0000     2.0000 </r>
       <r>   -15.8170     0.0000     2.0000 </r>
       <r>   -15.7474     0.0000     2.0000 </r>
       <r>   -15.6779     0.0000     2.0000 </r>
       <r>   -15.6083     0.0000     2.0000 </r>
       <r>   -15.5387     0.0000     2.0000 </r>
       <r>   -15.4691     0.0000     2.0000 </r>
       <r>   -15.3995     0.0000     2.0000 </r>
       <r>   -15.3299     0.0000     2.0000 </r>
       <r>   -15.2603     0.0000     2.0000 </r>
       <r>   -15.1907     0.0000     2.0000 </r>
       <r>   -15.1211     0.0000     2.0000 </r>
       <r>   -15.0515     0.0000     2.0000 </r>
       <r>   -14.9819     0.0000     2.0000 </r>
       <r>   -14.9123     0.0000     2.0000 </r>
       <r>   -14.8427     0.0062     2.0004 </r>
       <r>   -14.7731     0.0063     2.0009 </r>
       <r>   -14.7035     0.0126     2.0017 </r>
       <r>   -14.6339     0.0252     2.0035 </r>
       <r>   -14.5643     0.0504     2.0070 </r>
       <r>   -14.4947     0.1006     2.0140 </r>
       <r>   -14.4251     0.1997     2.0279 </r>
       <r>   -14.3555     0.3922     2.0552 </r>
       <r>   -14.2860     0.7547     2.1077 </r>
       <r>   -14.2164     1.3971     2.2050 </r>
       <r>   -14.1468     2.4098     2.3727 </r>
       <r>   -14.0772     3.6900     2.6295 </r>
       <r>   -14.0076     4.7344     2.9590 </r>
       <r>   -13.9380     4.8662     3.2976 </r>
       <r>   -13.8684     3.9848     3.5750 </r>
       <r>   -13.7988     2.6990     3.7628 </r>
       <r>   -13.7292     1.6015     3.8743 </r>
       <r>   -13.6596     0.8766     3.9353 </r>
       <r>   -13.5900     0.4588     3.9672 </r>
       <r>   -13.5204     0.2344     3.9835 </r>
       <r>   -13.4508     0.1184     3.9917 </r>
       <r>   -13.3812     0.0594     3.9959 </r>
       <r>   -13.3116     0.0297     3.9979 </r>
       <r>   -13.2420     0.0148     3.9990 </r>
       <r>   -13.1724     0.0000     4.0000 </r>
       <r>   -13.1028     0.0000     4.0000 </r>
       <r>   -13.0332     0.0000     4.0000 </r>
       <r>   -12.9636     0.0061     4.0004 </r>
       <r>   -12.8941     0.0061     4.0008 </r>
       <r>   -12.8245     0.0123     4.0017 </r>
       <r>   -12.7549     0.0246     4.0034 </r>
       <r>   -12.6853     0.0492     4.0068 </r>
       <r>   -12.6157     0.0981     4.0137 </r>
       <r>   -12.5461     0.1947     4.0272 </r>
       <r>   -12.4765     0.3826     4.0538 </r>
       <r>   -12.4069     0.7371     4.1051 </r>
       <r>   -12.3373     1.3671     4.2003 </r>
       <r>   -12.2677     2.3660     4.3649 </r>
       <r>   -12.1981     3.6426     4.6185 </r>
       <r>   -12.1285     4.7087     4.9462 </r>
       <r>   -12.0589     4.8815     5.2859 </r>
       <r>   -11.9893     4.0292     5.5663 </r>
       <r>   -11.9197     2.7456     5.7574 </r>
       <r>   -11.8501     1.6354     5.8712 </r>
       <r>   -11.7805     0.8972     5.9336 </r>
       <r>   -11.7109     0.4701     5.9663 </r>
       <r>   -11.6413     0.2404     5.9831 </r>
       <r>   -11.5717     0.1214     5.9915 </r>
       <r>   -11.5022     0.0609     5.9958 </r>
       <r>   -11.4326     0.0305     5.9979 </r>
       <r>   -11.3630     0.0152     5.9989 </r>
       <r>   -11.2934     0.0000     6.0000 </r>
       <r>   -11.2238     0.0000     6.0000 </r>
       <r>   -11.1542     0.0000     6.0000 </r>
       <r>   -11.0846     0.0000     6.0000 </r>
       <r>   -11.0150     0.0000     6.0000 </r>
       <r>   -10.9454     0.0000     6.0000 </r>
       <r>   -10.8758     0.0000     6.0000 </r>
       <r>   -10.8062     0.0000     6.0000 </r>
       <r>   -10.7366     0.0000     6.0000 </r>
       <r>   -10.6670     0.0000     6.0000 </r>
       <r>   -10.5974     0.0000     6.0000 </r>
       <r>   -10.5278     0.0000     6.0000 </r>
       <r>   -10.4582     0.0000     6.0000 </r>
       <r>   -10.3886     0.0000     6.0000 </r>
       <r>   -10.3190     0.0000     6.0000 </r>
       <r>   -10.2494     0.0000     6.0000 </r>
       <r>   -10.1798     0.0000     6.0000 </r>
       <r>   -10.1103     0.0000     6.0000 </r>
       <r>   -10.0407     0.0000     6.0000 </r>
       <r>    -9.9711     0.0000     6.0000 </r>
       <r>    -9.9015     0.0000     6.0000 </r>
       <r>    -9.8319     0.0000     6.0000 </r>
       <r>    -9.7623     0.0000     6.0000 </r>
       <r>    -9.6927     0.0000     6.0000 </r>
       <r>    -9.6231     0.0000     6.0000 </r>
       <r>    -9.5535     0.0000     6.0000 </r>
       <r>    -9.4839     0.0000     6.0000 </r>
       <r>    -9.4143     0.0000     6.0000 </r>
       <r>    -9.3447     0.0000     6.0000 </r>
       <r>    -9.2751     0.0000     6.0000 </r>
       <r>    -9.2055     0.0000     6.0000 </r>
       <r>    -9.1359     0.0000     6.0000 </r>
       <r>    -9.0663     0.0000     6.0000 </r>
       <r>    -8.9967     0.0000     6.0000 </r>
       <r>    -8.9271     0.0000     6.0000 </r>
       <r>    -8.8575     0.0000     6.0000 </r>
       <r>    -8.7879     0.0000     6.0000 </r>
       <r>    -8.7184     0.0000     6.0000 </r>
       <r>    -8.6488     0.0000     6.0000 </r>
       <r>    -8.5792     0.0000     6.0000 </r>
       <r>    -8.5096     0.0000     6.0000 </r>
       <r>    -8.4400     0.0000     6.0000 </r>
       <r>    -8.3704     0.0000     6.0000 </r>
       <r>    -8.3008     0.0000     6.0000 </r>
       <r>    -8.2312     0.0000     6.0000 </r>
       <r>    -8.1616     0.0000     6.0000 </r>
       <r>    -8.0920     0.0000     6.0000 </r>
       <r>    -8.0224     0.0107     6.0007 </r>
       <r>    -7.9528     0.0107     6.0015 </r>
       <r>    -7.8832     0.0215     6.0030 </r>
       <r>    -7.8136     0.0431     6.0060 </r>
       <r>    -7.7440     0.0862     6.0120 </r>
       <r>    -7.6744     0.1720     6.0240 </r>
       <r>    -7.6048     0.3420     6.0478 </r>
       <r>    -7.5352     0.6737     6.0946 </r>
       <r>    -7.4656     1.3040     6.1854 </r>
       <r>    -7.3960     2.4409     6.3553 </r>
       <r>    -7.3264     4.2939     6.6541 </r>
       <r>    -7.2569     6.7894     7.1266 </r>
       <r>    -7.1873     9.1128     7.7608 </r>
       <r>    -7.1177     9.8725     8.4479 </r>
       <r>    -7.0481     8.4962     9.0392 </r>
       <r>    -6.9785     5.9797     9.4553 </r>
       <r>    -6.9089     3.6381     9.7085 </r>
       <r>    -6.8393     2.0207     9.8492 </r>
       <r>    -6.7697     1.0659     9.9233 </r>
       <r>    -6.7001     0.5469     9.9614 </r>
       <r>    -6.6305     0.2767     9.9807 </r>
       <r>    -6.5609     0.1390     9.9903 </r>
       <r>    -6.4913     0.0695     9.9952 </r>
       <r>    -6.4217     0.0347     9.9976 </r>
       <r>    -6.3521     0.0000    10.0000 </r>
       <r>    -6.2825     0.0000    10.0000 </r>
       <r>    -6.2129     0.0000    10.0000 </r>
       <r>    -6.1433     0.0000    10.0000 </r>
       <r>    -6.0737     0.0000    10.0000 </r>
       <r>    -6.0041     0.0000    10.0000 </r>
       <r>    -5.9345     0.0000    10.0000 </r>
       <r>    -5.8650     0.0000    10.0000 </r>
       <r>    -5.7954     0.0000    10.0000 </r>
       <r>    -5.7258     0.0000    10.0000 </r>
       <r>    -5.6562     0.0000    10.0000 </r>
       <r>    -5.5866     0.0000    10.0000 </r>
       <r>    -5.5170     0.0000    10.0000 </r>
       <r>    -5.4474     0.0000    10.0000 </r>
       <r>    -5.3778     0.0000    10.0000 </r>
       <r>    -5.3082     0.0000    10.0000 </r>
       <r>    -5.2386     0.0000    10.0000 </r>
       <r>    -5.1690     0.0000    10.0000 </r>
       <r>    -5.0994     0.0000    10.0000 </r>
       <r>    -5.0298     0.0000    10.0000 </r>
       <r>    -4.9602     0.0000    10.0000 </r>
       <r>    -4.8906     0.0000    10.0000 </r>
       <r>    -4.8210     0.0000    10.0000 </r>
       <r>    -4.7514     0.0000    10.0000 </r>
       <r>    -4.6818     0.0000    10.0000 </r>
       <r>    -4.6122     0.0000    10.0000 </r>
       <r>    -4.5426     0.0000    10.0000 </r>
       <r>    -4.4731     0.0000    10.0000 </r>
       <r>    -4.4035     0.0000    10.0000 </r>
       <r>    -4.3339     0.0000    10.0000 </r>
       <r>    -4.2643     0.0000    10.0000 </r>
       <r>    -4.1947     0.0000    10.0000 </r>
       <r>    -4.1251     0.0000    10.0000 </r>
       <r>    -4.0555     0.0000    10.0000 </r>
       <r>    -3.9859     0.0000    10.0000 </r>
       <r>    -3.9163     0.0000    10.0000 </r>
       <r>    -3.8467     0.0000    10.0000 </r>
       <r>    -3.7771     0.0000    10.0000 </r>
       <r>    -3.7075     0.0000    10.0000 </r>
       <r>    -3.6379     0.0000    10.0000 </r>
       <r>    -3.5683     0.0000    10.0000 </r>
       <r>    -3.4987     0.0000    10.0000 </r>
       <r>    -3.4291     0.0000    10.0000 </r>
       <r>    -3.3595     0.0000    10.0000 </r>
       <r>    -3.2899     0.0000    10.0000 </r>
       <r>    -3.2203     0.0000    10.0000 </r>
       <r>    -3.1507     0.0000    10.0000 </r>
       <r>    -3.0812     0.0000    10.0000 </r>
       <r>    -3.0116     0.0000    10.0000 </r>
       <r>    -2.9420     0.0000    10.0000 </r>
       <r>    -2.8724     0.0000    10.0000 </r>
       <r>    -2.8028     0.0000    10.0000 </r>
       <r>    -2.7332     0.0000    10.0000 </r>
       <r>    -2.6636     0.0000    10.0000 </r>
       <r>    -2.5940     0.0000    10.0000 </r>
       <r>    -2.5244     0.0000    10.0000 </r>
       <r>    -2.4548     0.0000    10.0000 </r>
       <r>    -2.3852     0.0000    10.0000 </r>
       <r>    -2.3156     0.0000    10.0000 </r>
       <r>    -2.2460     0.0000    10.0000 </r>
       <r>    -2.1764     0.0000    10.0000 </r>
       <r>    -2.1068     0.0000    10.0000 </r>
       <r>    -2.0372     0.0000    10.0000 </r>
       <r>    -1.9676     0.0000    10.0000 </r>
       <r>    -1.8980     0.0000    10.0000 </r>
       <r>    -1.8284     0.0000    10.0000 </r>
       <r>    -1.7588     0.0000    10.0000 </r>
       <r>    -1.6893     0.0000    10.0000 </r>
       <r>    -1.6197     0.0000    10.0000 </r>
       <r>    -1.5501     0.0000    10.0000 </r>
       <r>    -1.4805     0.0000    10.0000 </r>
       <r>    -1.4109     0.0000    10.0000 </r>
       <r>    -1.3413     0.0000    10.0000 </r>
       <r>    -1.2717     0.0119    10.0008 </r>
       <r>    -1.2021     0.0119    10.0017 </r>
       <r>    -1.1325     0.0239    10.0033 </r>
       <r>    -1.0629     0.0538    10.0071 </r>
       <r>    -0.9933     0.1016    10.0141 </r>
       <r>    -0.9237     0.2029    10.0283 </r>
       <r>    -0.8541     0.4031    10.0563 </r>
       <r>    -0.7845     0.8003    10.1120 </r>
       <r>    -0.7149     1.5471    10.2197 </r>
       <r>    -0.6453     2.8823    10.4203 </r>
       <r>    -0.5757     5.0549    10.7721 </r>
       <r>    -0.5061     8.0052    11.3292 </r>
       <r>    -0.4365    10.8829    12.0866 </r>
       <r>    -0.3669    12.4832    12.9554 </r>
       <r>    -0.2974    12.4725    13.8234 </r>
       <r>    -0.2278    11.6792    14.6362 </r>
       <r>    -0.1582    10.8787    15.3933 </r>
       <r>    -0.0886    10.5890    16.1303 </r>
       <r>    -0.0190    11.3166    16.9178 </r>
       <r>     0.0506    12.9238    17.8173 </r>
       <r>     0.1202    14.4741    18.8246 </r>
       <r>     0.1898    15.2469    19.8857 </r>
       <r>     0.2594    15.1800    20.9422 </r>
       <r>     0.3290    14.0203    21.9179 </r>
       <r>     0.3986    11.3902    22.7128 </r>
       <r>     0.4682     7.9574    23.2666 </r>
       <r>     0.5378     4.8722    23.6056 </r>
       <r>     0.6074     2.7171    23.7958 </r>
       <r>     0.6770     1.4401    23.8960 </r>
       <r>     0.7466     0.7410    23.9476 </r>
       <r>     0.8162     0.3754    23.9737 </r>
       <r>     0.8858     0.1820    23.9873 </r>
       <r>     0.9554     0.0845    23.9941 </r>
       <r>     1.0250     0.0422    23.9971 </r>
       <r>     1.0945     0.0211    23.9985 </r>
       <r>     1.1641     0.0000    24.0000 </r>
       <r>     1.2337     0.0000    24.0000 </r>
       <r>     1.3033     0.0000    24.0000 </r>
      </set>
     </set>
    </array>
   </total>
  </dos>
 </calculation>
 <structure name="finalpos" >
  <crystal>
   <varray name="basis" >
    <v>      20.00000000       0.00000000       0.00000000 </v>
    <v>       0.00000000      20.00000000       0.00000000 </v>
    <v>       0.00000000       0.00000000      20.00000000 </v>
   </varray>
   <i name="volume">   8000.00000000 </i>
   <varray name="rec_basis" >
    <v>       0.05000000       0.00000000       0.00000000 </v>
    <v>       0.00000000       0.05000000       0.00000000 </v>
    <v>       0.00000000       0.00000000       0.05000000 </v>
   </varray>
  </crystal>
  <varray name="positions" >
   <v>       0.50000000       0.50000000       0.53019224 </v>
   <v>       0.50000000       0.50000000       0.46980776 </v>
   <v>       0.50000000       0.50000000       0.41625830 </v>
   <v>       0.50000000       0.50000000       0.58374170 </v>
  </varray>
 </structure>
</modeling>
