   38   38    1    1
  0.3536008E+02  0.8421642E-09  0.8421642E-09  0.2187624E-08  0.5000000E-15
  1.000000000000000E-004
  CAR 
 unknown system                          
    365     54    220
 
  0.8333333E-01  0.8333333E-01  0.0000000E+00  0.1851852E-01
    1      -11.161388   1.000000
    2       -7.921049   1.000000
    3       -6.644071   1.000000
    4       -6.008064   1.000000
    5       -5.672623   1.000000
    6       -5.573730   1.000000
    7       -5.541023   1.000000
    8       -5.471716   1.000000
    9       -5.397520   1.000000
   10       -5.381663   1.000000
   11       -5.354195   1.000000
   12       -5.207930   1.000000
   13       -5.073043   1.000000
   14       -5.060385   1.000000
   15       -4.903389   1.000000
   16       -4.873856   1.000000
   17       -4.863960   1.000000
   18       -4.789081   1.000000
   19       -4.682017   1.000000
   20       -4.671762   1.000000
   21       -4.403897   1.000000
   22       -4.392289   1.000000
   23       -4.381328   1.000000
   24       -4.299535   1.000000
   25       -4.253724   1.000000
   26       -4.232146   1.000000
   27       -4.168477   1.000000
   28       -4.130019   1.000000
   29       -4.119179   1.000000
   30       -4.034594   1.000000
   31       -4.029431   1.000000
   32       -4.027992   1.000000
   33       -3.971860   1.000000
   34       -3.964574   1.000000
   35       -3.928671   1.000000
   36       -3.926148   1.000000
   37       -3.905858   1.000000
   38       -3.898856   1.000000
   39       -3.864165   1.000000
   40       -3.739920   1.000000
   41       -3.735239   1.000000
   42       -3.481103   1.000000
   43       -3.360518   1.000000
   44       -3.358723   1.000000
   45       -3.304823   1.000000
   46       -3.300285   1.000000
   47       -3.282663   1.000000
   48       -3.259830   1.000000
   49       -3.193109   1.000000
   50       -3.183538   1.000000
   51       -3.146657   1.000000
   52       -3.105952   1.000000
   53       -3.103148   1.000000
   54       -3.006977   1.000000
   55       -2.999699   1.000000
   56       -2.961245   1.000000
   57       -2.868754   1.000000
   58       -2.864292   1.000000
   59       -2.502462   1.000000
   60       -2.499668   1.000000
   61       -2.447777   1.000000
   62       -2.420608   1.000000
   63       -2.415383   1.000000
   64       -2.400274   1.000000
   65       -2.358878   1.000000
   66       -2.348540   1.000000
   67       -2.331720   1.000000
   68       -2.307102   1.000000
   69       -2.289110   1.000000
   70       -2.265259   1.000000
   71       -2.226660   1.000000
   72       -2.206799   1.000000
   73       -2.190380   1.000000
   74       -2.177402   1.000000
   75       -2.149194   1.000000
   76       -2.120098   1.000000
   77       -2.080755   1.000000
   78       -2.073012   1.000000
   79       -2.047811   1.000000
   80       -2.028924   1.000000
   81       -2.013791   1.000000
   82       -1.994941   1.000000
   83       -1.947590   1.000000
   84       -1.941837   1.000000
   85       -1.910866   1.000000
   86       -1.902127   1.000000
   87       -1.783773   1.000000
   88       -1.763677   1.000000
   89       -1.762802   1.000000
   90       -1.723226   1.000000
   91       -1.717377   1.000000
   92       -1.694038   1.000000
   93       -1.686719   1.000000
   94       -1.666812   1.000000
   95       -1.641205   1.000000
   96       -1.615518   1.000000
   97       -1.593712   1.000000
   98       -1.588273   1.000000
   99       -1.551519   1.000000
  100       -1.499899   1.000000
  101       -1.452909   1.000000
  102       -1.434631   1.000000
  103       -1.415207   1.000000
  104       -1.403200   1.000000
  105       -1.402236   1.000000
  106       -1.384707   1.000000
  107       -1.345129   1.000000
  108       -1.342244   1.000000
  109       -1.305977   1.000000
  110       -1.251284   1.000000
  111       -1.228961   1.000000
  112       -1.052625   1.000000
  113       -1.013001   1.000000
  114       -0.981795   1.000000
  115       -0.901734   1.000000
  116       -0.896061   1.000000
  117       -0.807322   1.000000
  118       -0.800386   1.000000
  119       -0.789008   1.000000
  120       -0.755214   1.000000
  121       -0.749991   1.000000
  122       -0.724141   1.000000
  123       -0.655038   1.000000
  124       -0.649487   1.000000
  125       -0.595681   1.000000
  126       -0.485307   1.000000
  127       -0.483847   1.000000
  128       -0.403353   1.000000
  129       -0.359326   1.000000
  130       -0.305025   1.000000
  131       -0.295593   1.000000
  132       -0.244258   1.000000
  133       -0.230327   1.000000
  134       -0.216127   1.000000
  135       -0.213677   1.000000
  136       -0.166267   0.999999
  137       -0.154009   0.999999
  138       -0.115186   0.999999
  139       -0.052185   0.999998
  140       -0.036270   0.999998
  141       -0.009990   0.999998
  142        0.017190   0.999997
  143        0.079251   0.999994
  144        0.108907   0.999992
  145        0.111067   0.999992
  146        0.151405   0.999988
  147        0.213192   0.999977
  148        0.217992   0.999976
  149        0.233996   0.999972
  150        0.280893   0.999955
  151        0.309637   0.999940
  152        0.340364   0.999918
  153        0.357582   0.999903
  154        0.376459   0.999883
  155        0.432993   0.999794
  156        0.459640   0.999731
  157        0.460840   0.999728
  158        0.487369   0.999645
  159        0.496851   0.999610
  160        0.540243   0.999399
  161        0.553615   0.999313
  162        0.570011   0.999190
  163        0.594138   0.998970
  164        0.608152   0.998815
  165        0.664399   0.997922
  166        0.667620   0.997854
  167        0.687144   0.997392
  168        0.692959   0.997237
  169        0.716454   0.996507
  170        0.721321   0.996334
  171        0.753694   0.994939
  172        0.757853   0.994725
  173        0.762811   0.994459
  174        0.807645   0.991351
  175        0.847041   0.987228
  176        0.850320   0.986808
  177        0.905902   0.977225
  178        0.919546   0.973983
  179        0.941147   0.967911
  180        0.947124   0.966002
  181        0.986161   0.950569
  182        0.991696   0.947902
  183        1.023136   0.930003
  184        1.034569   0.922184
  185        1.060935   0.901031
  186        1.068679   0.893909
  187        1.082543   0.880024
  188        1.097935   0.862799
  189        1.101591   0.858414
  190        1.163802   0.764961
  191        1.201718   0.690169
  192        1.296422   0.463533
  193        1.304836   0.442685
  194        1.322487   0.399685
  195        1.353670   0.327700
  196        1.359734   0.314480
  197        1.390576   0.252057
  198        1.750475   0.009133
  199        1.817415   0.004697
  200        1.952827   0.001217
  201        2.056278   0.000433
  202        2.199176   0.000104
  203        2.225597   0.000080
  204        2.376903   0.000018
  205        3.264589   0.000000
  206        3.291705   0.000000
  207        4.176423   0.000000
  208        4.314393   0.000000
  209        4.483442   0.000000
  210        4.696799   0.000000
  211        4.995629   0.000000
  212        5.021914   0.000000
  213        5.621289   0.000000
  214        5.691224   0.000000
  215        5.953788   0.000000
  216        6.134419   0.000000
  217        6.180807   0.000000
  218        6.481185   0.000000
  219        6.618432   0.000000
  220        6.709318   0.000000
 
  0.0000000E+00  0.8333333E-01  0.0000000E+00  0.1851852E-01
    1      -11.161393   1.000000
    2       -7.921055   1.000000
    3       -6.644077   1.000000
    4       -6.008116   1.000000
    5       -5.674588   1.000000
    6       -5.572645   1.000000
    7       -5.539866   1.000000
    8       -5.471727   1.000000
    9       -5.396215   1.000000
   10       -5.380539   1.000000
   11       -5.356716   1.000000
   12       -5.208056   1.000000
   13       -5.072565   1.000000
   14       -5.060810   1.000000
   15       -4.902355   1.000000
   16       -4.873830   1.000000
   17       -4.865263   1.000000
   18       -4.789390   1.000000
   19       -4.683065   1.000000
   20       -4.670372   1.000000
   21       -4.404613   1.000000
   22       -4.391648   1.000000
   23       -4.381010   1.000000
   24       -4.299200   1.000000
   25       -4.254324   1.000000
   26       -4.231904   1.000000
   27       -4.168555   1.000000
   28       -4.129907   1.000000
   29       -4.119536   1.000000
   30       -4.035268   1.000000
   31       -4.029986   1.000000
   32       -4.028110   1.000000
   33       -3.973031   1.000000
   34       -3.965387   1.000000
   35       -3.927551   1.000000
   36       -3.925164   1.000000
   37       -3.904804   1.000000
   38       -3.897280   1.000000
   39       -3.864019   1.000000
   40       -3.741055   1.000000
   41       -3.735385   1.000000
   42       -3.481178   1.000000
   43       -3.360648   1.000000
   44       -3.358742   1.000000
   45       -3.305117   1.000000
   46       -3.300531   1.000000
   47       -3.282138   1.000000
   48       -3.259157   1.000000
   49       -3.192940   1.000000
   50       -3.183658   1.000000
   51       -3.146628   1.000000
   52       -3.106628   1.000000
   53       -3.102359   1.000000
   54       -3.006667   1.000000
   55       -3.000206   1.000000
   56       -2.961320   1.000000
   57       -2.868215   1.000000
   58       -2.864648   1.000000
   59       -2.500995   1.000000
   60       -2.500053   1.000000
   61       -2.447448   1.000000
   62       -2.418995   1.000000
   63       -2.415756   1.000000
   64       -2.400666   1.000000
   65       -2.356683   1.000000
   66       -2.348368   1.000000
   67       -2.333461   1.000000
   68       -2.308044   1.000000
   69       -2.289571   1.000000
   70       -2.265092   1.000000
   71       -2.227136   1.000000
   72       -2.206206   1.000000
   73       -2.190083   1.000000
   74       -2.177279   1.000000
   75       -2.149367   1.000000
   76       -2.118366   1.000000
   77       -2.081384   1.000000
   78       -2.070472   1.000000
   79       -2.046778   1.000000
   80       -2.030605   1.000000
   81       -2.020948   1.000000
   82       -1.997734   1.000000
   83       -1.946770   1.000000
   84       -1.941527   1.000000
   85       -1.906155   1.000000
   86       -1.901076   1.000000
   87       -1.786938   1.000000
   88       -1.762950   1.000000
   89       -1.761112   1.000000
   90       -1.723033   1.000000
   91       -1.718177   1.000000
   92       -1.692402   1.000000
   93       -1.685778   1.000000
   94       -1.670385   1.000000
   95       -1.641140   1.000000
   96       -1.616143   1.000000
   97       -1.594004   1.000000
   98       -1.588283   1.000000
   99       -1.551615   1.000000
  100       -1.497029   1.000000
  101       -1.453149   1.000000
  102       -1.435790   1.000000
  103       -1.412909   1.000000
  104       -1.403329   1.000000
  105       -1.402247   1.000000
  106       -1.385713   1.000000
  107       -1.346247   1.000000
  108       -1.343425   1.000000
  109       -1.308141   1.000000
  110       -1.250599   1.000000
  111       -1.226101   1.000000
  112       -1.051592   1.000000
  113       -1.013806   1.000000
  114       -0.980994   1.000000
  115       -0.901265   1.000000
  116       -0.895896   1.000000
  117       -0.808142   1.000000
  118       -0.801166   1.000000
  119       -0.789916   1.000000
  120       -0.755392   1.000000
  121       -0.750988   1.000000
  122       -0.723263   1.000000
  123       -0.655497   1.000000
  124       -0.650108   1.000000
  125       -0.596683   1.000000
  126       -0.485645   1.000000
  127       -0.483355   1.000000
  128       -0.403686   1.000000
  129       -0.359134   1.000000
  130       -0.304893   1.000000
  131       -0.295082   1.000000
  132       -0.240071   1.000000
  133       -0.233953   1.000000
  134       -0.215628   1.000000
  135       -0.213941   1.000000
  136       -0.166628   0.999999
  137       -0.155322   0.999999
  138       -0.116330   0.999999
  139       -0.052708   0.999998
  140       -0.036487   0.999998
  141       -0.010154   0.999998
  142        0.017525   0.999997
  143        0.078392   0.999994
  144        0.107272   0.999992
  145        0.113657   0.999992
  146        0.151505   0.999988
  147        0.213567   0.999977
  148        0.219379   0.999976
  149        0.234810   0.999972
  150        0.280818   0.999955
  151        0.310133   0.999940
  152        0.340094   0.999919
  153        0.358325   0.999902
  154        0.377511   0.999882
  155        0.432785   0.999795
  156        0.459546   0.999732
  157        0.460029   0.999730
  158        0.486482   0.999649
  159        0.496208   0.999613
  160        0.540676   0.999396
  161        0.552301   0.999322
  162        0.570590   0.999186
  163        0.593366   0.998977
  164        0.608935   0.998805
  165        0.665117   0.997907
  166        0.666955   0.997868
  167        0.686979   0.997397
  168        0.692850   0.997240
  169        0.717215   0.996481
  170        0.722537   0.996289
  171        0.753311   0.994958
  172        0.758351   0.994699
  173        0.764611   0.994359
  174        0.806500   0.991449
  175        0.847460   0.987175
  176        0.850753   0.986752
  177        0.906087   0.977184
  178        0.918782   0.974175
  179        0.941688   0.967742
  180        0.947472   0.965887
  181        0.984716   0.951243
  182        0.990651   0.948416
  183        1.023316   0.929886
  184        1.032845   0.923412
  185        1.060676   0.901263
  186        1.067219   0.895285
  187        1.082728   0.879829
  188        1.098768   0.861811
  189        1.102158   0.857724
  190        1.162388   0.767493
  191        1.204787   0.683569
  192        1.294886   0.467355
  193        1.304412   0.443732
  194        1.324920   0.393860
  195        1.353869   0.327260
  196        1.359970   0.313972
  197        1.391621   0.250093
  198        1.749605   0.009212
  199        1.818296   0.004656
  200        1.953793   0.001205
  201        2.056775   0.000431
  202        2.198036   0.000105
  203        2.226314   0.000079
  204        2.375456   0.000018
  205        3.263484   0.000000
  206        3.292686   0.000000
  207        4.175431   0.000000
  208        4.314300   0.000000
  209        4.486038   0.000000
  210        4.696358   0.000000
  211        4.990639   0.000000
  212        5.026465   0.000000
  213        5.620236   0.000000
  214        5.690636   0.000000
  215        5.954214   0.000000
  216        6.136674   0.000000
  217        6.182529   0.000000
  218        6.477508   0.000000
  219        6.651171   0.000000
  220        6.765263   0.000000
 
 -0.8333333E-01  0.0000000E+00  0.0000000E+00  0.1851852E-01
    1      -11.161389   1.000000
    2       -7.921053   1.000000
    3       -6.644076   1.000000
    4       -6.008083   1.000000
    5       -5.673936   1.000000
    6       -5.572981   1.000000
    7       -5.540284   1.000000
    8       -5.471733   1.000000
    9       -5.396660   1.000000
   10       -5.380944   1.000000
   11       -5.355826   1.000000
   12       -5.208027   1.000000
   13       -5.072917   1.000000
   14       -5.060437   1.000000
   15       -4.902834   1.000000
   16       -4.873939   1.000000
   17       -4.864580   1.000000
   18       -4.789257   1.000000
   19       -4.682926   1.000000
   20       -4.670658   1.000000
   21       -4.404335   1.000000
   22       -4.391795   1.000000
   23       -4.381237   1.000000
   24       -4.299383   1.000000
   25       -4.254042   1.000000
   26       -4.231982   1.000000
   27       -4.168639   1.000000
   28       -4.129852   1.000000
   29       -4.119460   1.000000
   30       -4.035042   1.000000
   31       -4.029555   1.000000
   32       -4.028040   1.000000
   33       -3.972799   1.000000
   34       -3.964916   1.000000
   35       -3.927876   1.000000
   36       -3.925769   1.000000
   37       -3.905326   1.000000
   38       -3.897869   1.000000
   39       -3.863997   1.000000
   40       -3.741101   1.000000
   41       -3.734822   1.000000
   42       -3.481105   1.000000
   43       -3.360689   1.000000
   44       -3.358702   1.000000
   45       -3.305084   1.000000
   46       -3.300312   1.000000
   47       -3.282282   1.000000
   48       -3.259677   1.000000
   49       -3.193115   1.000000
   50       -3.183426   1.000000
   51       -3.146571   1.000000
   52       -3.106661   1.000000
   53       -3.102545   1.000000
   54       -3.006824   1.000000
   55       -2.999875   1.000000
   56       -2.961263   1.000000
   57       -2.868689   1.000000
   58       -2.864226   1.000000
   59       -2.501952   1.000000
   60       -2.499465   1.000000
   61       -2.447522   1.000000
   62       -2.419644   1.000000
   63       -2.415529   1.000000
   64       -2.400592   1.000000
   65       -2.357519   1.000000
   66       -2.348484   1.000000
   67       -2.332605   1.000000
   68       -2.307899   1.000000
   69       -2.289379   1.000000
   70       -2.265140   1.000000
   71       -2.227057   1.000000
   72       -2.206441   1.000000
   73       -2.190152   1.000000
   74       -2.177364   1.000000
   75       -2.149269   1.000000
   76       -2.119189   1.000000
   77       -2.080937   1.000000
   78       -2.071649   1.000000
   79       -2.047127   1.000000
   80       -2.029918   1.000000
   81       -2.018107   1.000000
   82       -1.996600   1.000000
   83       -1.948076   1.000000
   84       -1.940550   1.000000
   85       -1.908110   1.000000
   86       -1.901592   1.000000
   87       -1.785590   1.000000
   88       -1.763573   1.000000
   89       -1.761516   1.000000
   90       -1.722933   1.000000
   91       -1.717901   1.000000
   92       -1.692936   1.000000
   93       -1.686481   1.000000
   94       -1.668887   1.000000
   95       -1.641273   1.000000
   96       -1.615841   1.000000
   97       -1.593776   1.000000
   98       -1.588273   1.000000
   99       -1.551525   1.000000
  100       -1.498247   1.000000
  101       -1.453217   1.000000
  102       -1.435295   1.000000
  103       -1.413882   1.000000
  104       -1.403343   1.000000
  105       -1.402214   1.000000
  106       -1.385266   1.000000
  107       -1.346200   1.000000
  108       -1.342676   1.000000
  109       -1.307024   1.000000
  110       -1.250770   1.000000
  111       -1.227413   1.000000
  112       -1.052092   1.000000
  113       -1.013007   1.000000
  114       -0.981412   1.000000
  115       -0.901292   1.000000
  116       -0.896030   1.000000
  117       -0.807631   1.000000
  118       -0.800978   1.000000
  119       -0.789570   1.000000
  120       -0.755469   1.000000
  121       -0.750975   1.000000
  122       -0.723260   1.000000
  123       -0.655486   1.000000
  124       -0.649687   1.000000
  125       -0.596363   1.000000
  126       -0.485654   1.000000
  127       -0.483337   1.000000
  128       -0.403470   1.000000
  129       -0.359250   1.000000
  130       -0.304852   1.000000
  131       -0.295328   1.000000
  132       -0.242248   1.000000
  133       -0.232008   1.000000
  134       -0.216012   1.000000
  135       -0.213621   1.000000
  136       -0.166547   0.999999
  137       -0.154745   0.999999
  138       -0.116018   0.999999
  139       -0.052397   0.999998
  140       -0.036615   0.999998
  141       -0.009881   0.999998
  142        0.017339   0.999997
  143        0.078856   0.999994
  144        0.107716   0.999992
  145        0.112966   0.999992
  146        0.151266   0.999988
  147        0.213280   0.999977
  148        0.218628   0.999976
  149        0.234269   0.999972
  150        0.281453   0.999955
  151        0.309940   0.999940
  152        0.340367   0.999918
  153        0.357924   0.999903
  154        0.376895   0.999883
  155        0.432861   0.999794
  156        0.459203   0.999732
  157        0.460484   0.999729
  158        0.486918   0.999647
  159        0.496525   0.999612
  160        0.540601   0.999396
  161        0.552839   0.999318
  162        0.570527   0.999186
  163        0.593668   0.998974
  164        0.608816   0.998807
  165        0.664856   0.997912
  166        0.667249   0.997862
  167        0.686969   0.997397
  168        0.692994   0.997236
  169        0.716701   0.996499
  170        0.722037   0.996307
  171        0.753495   0.994949
  172        0.758154   0.994710
  173        0.763832   0.994402
  174        0.806848   0.991419
  175        0.847251   0.987202
  176        0.850737   0.986754
  177        0.906009   0.977202
  178        0.919044   0.974110
  179        0.941469   0.967811
  180        0.947271   0.965953
  181        0.985316   0.950965
  182        0.991025   0.948232
  183        1.023169   0.929981
  184        1.033483   0.922960
  185        1.060845   0.901112
  186        1.067754   0.894782
  187        1.082620   0.879943
  188        1.098352   0.862305
  189        1.102040   0.857867
  190        1.162916   0.766549
  191        1.203690   0.685936
  192        1.295430   0.466000
  193        1.304606   0.443254
  194        1.323902   0.396293
  195        1.353815   0.327380
  196        1.359936   0.314046
  197        1.391132   0.251011
  198        1.749978   0.009178
  199        1.817993   0.004670
  200        1.953379   0.001210
  201        2.056543   0.000432
  202        2.198469   0.000104
  203        2.225894   0.000079
  204        2.376180   0.000018
  205        3.263523   0.000000
  206        3.292692   0.000000
  207        4.175827   0.000000
  208        4.314378   0.000000
  209        4.484933   0.000000
  210        4.696549   0.000000
  211        4.992474   0.000000
  212        5.024780   0.000000
  213        5.620816   0.000000
  214        5.690974   0.000000
  215        5.953577   0.000000
  216        6.136759   0.000000
  217        6.181895   0.000000
  218        6.471014   0.000000
  219        6.650381   0.000000
  220        6.699871   0.000000
 
  0.2500000E+00  0.8333333E-01  0.0000000E+00  0.1851852E-01
    1      -11.156727   1.000000
    2       -7.768067   1.000000
    3       -6.507994   1.000000
    4       -6.050541   1.000000
    5       -5.937788   1.000000
    6       -5.823407   1.000000
    7       -5.418817   1.000000
    8       -5.327659   1.000000
    9       -5.275337   1.000000
   10       -5.249341   1.000000
   11       -5.215906   1.000000
   12       -5.180081   1.000000
   13       -5.080849   1.000000
   14       -4.977459   1.000000
   15       -4.950155   1.000000
   16       -4.874065   1.000000
   17       -4.795116   1.000000
   18       -4.721591   1.000000
   19       -4.651622   1.000000
   20       -4.565581   1.000000
   21       -4.449975   1.000000
   22       -4.386212   1.000000
   23       -4.347617   1.000000
   24       -4.289466   1.000000
   25       -4.272378   1.000000
   26       -4.204704   1.000000
   27       -4.198576   1.000000
   28       -4.153780   1.000000
   29       -4.132831   1.000000
   30       -4.119765   1.000000
   31       -4.088797   1.000000
   32       -4.050845   1.000000
   33       -4.036956   1.000000
   34       -4.002618   1.000000
   35       -3.945374   1.000000
   36       -3.908949   1.000000
   37       -3.769215   1.000000
   38       -3.748463   1.000000
   39       -3.721327   1.000000
   40       -3.702907   1.000000
   41       -3.649936   1.000000
   42       -3.506310   1.000000
   43       -3.457031   1.000000
   44       -3.413678   1.000000
   45       -3.390799   1.000000
   46       -3.353613   1.000000
   47       -3.329673   1.000000
   48       -3.288720   1.000000
   49       -3.217957   1.000000
   50       -3.191314   1.000000
   51       -3.155606   1.000000
   52       -3.113053   1.000000
   53       -3.050550   1.000000
   54       -3.004012   1.000000
   55       -2.983177   1.000000
   56       -2.933265   1.000000
   57       -2.886040   1.000000
   58       -2.863324   1.000000
   59       -2.739192   1.000000
   60       -2.726013   1.000000
   61       -2.574030   1.000000
   62       -2.552087   1.000000
   63       -2.535846   1.000000
   64       -2.500968   1.000000
   65       -2.465574   1.000000
   66       -2.457813   1.000000
   67       -2.422422   1.000000
   68       -2.383066   1.000000
   69       -2.365283   1.000000
   70       -2.306244   1.000000
   71       -2.268704   1.000000
   72       -2.256883   1.000000
   73       -2.240297   1.000000
   74       -2.225805   1.000000
   75       -2.209171   1.000000
   76       -2.178475   1.000000
   77       -2.146993   1.000000
   78       -2.041735   1.000000
   79       -2.025008   1.000000
   80       -1.974199   1.000000
   81       -1.964015   1.000000
   82       -1.954186   1.000000
   83       -1.933320   1.000000
   84       -1.917254   1.000000
   85       -1.886347   1.000000
   86       -1.854470   1.000000
   87       -1.841240   1.000000
   88       -1.817550   1.000000
   89       -1.762805   1.000000
   90       -1.746251   1.000000
   91       -1.740389   1.000000
   92       -1.728989   1.000000
   93       -1.713751   1.000000
   94       -1.694055   1.000000
   95       -1.682347   1.000000
   96       -1.640795   1.000000
   97       -1.623760   1.000000
   98       -1.603570   1.000000
   99       -1.579872   1.000000
  100       -1.547338   1.000000
  101       -1.509166   1.000000
  102       -1.494265   1.000000
  103       -1.478364   1.000000
  104       -1.440129   1.000000
  105       -1.419653   1.000000
  106       -1.406024   1.000000
  107       -1.351399   1.000000
  108       -1.338726   1.000000
  109       -1.319326   1.000000
  110       -1.291312   1.000000
  111       -1.242946   1.000000
  112       -1.221270   1.000000
  113       -1.157758   1.000000
  114       -1.095306   1.000000
  115       -1.078967   1.000000
  116       -1.032504   1.000000
  117       -1.008102   1.000000
  118       -0.868506   1.000000
  119       -0.833424   1.000000
  120       -0.806967   1.000000
  121       -0.769006   1.000000
  122       -0.749497   1.000000
  123       -0.735462   1.000000
  124       -0.682317   1.000000
  125       -0.596164   1.000000
  126       -0.557217   1.000000
  127       -0.528938   1.000000
  128       -0.478389   1.000000
  129       -0.423660   1.000000
  130       -0.371705   1.000000
  131       -0.349803   1.000000
  132       -0.337959   1.000000
  133       -0.306842   1.000000
  134       -0.296666   1.000000
  135       -0.254404   1.000000
  136       -0.238319   1.000000
  137       -0.178372   1.000000
  138       -0.118136   0.999999
  139       -0.098136   0.999999
  140       -0.047412   0.999998
  141       -0.027082   0.999998
  142       -0.008363   0.999998
  143        0.016511   0.999997
  144        0.045275   0.999996
  145        0.082524   0.999994
  146        0.107205   0.999992
  147        0.125888   0.999990
  148        0.151263   0.999988
  149        0.162581   0.999986
  150        0.200525   0.999980
  151        0.241307   0.999970
  152        0.274529   0.999958
  153        0.282245   0.999954
  154        0.326286   0.999929
  155        0.349239   0.999911
  156        0.359220   0.999902
  157        0.423411   0.999813
  158        0.467455   0.999709
  159        0.523131   0.999493
  160        0.534107   0.999434
  161        0.578948   0.999115
  162        0.618085   0.998691
  163        0.656999   0.998070
  164        0.699723   0.997044
  165        0.709572   0.996739
  166        0.738852   0.995634
  167        0.765887   0.994287
  168        0.826170   0.989609
  169        0.846463   0.987301
  170        0.868910   0.984156
  171        0.916310   0.974790
  172        0.927441   0.971905
  173        0.949248   0.965297
  174        0.964283   0.959893
  175        0.995602   0.945939
  176        1.036880   0.920510
  177        1.044781   0.914533
  178        1.081964   0.880634
  179        1.098432   0.862210
  180        1.130815   0.819053
  181        1.147497   0.793003
  182        1.167994   0.757340
  183        1.180932   0.732779
  184        1.225279   0.637678
  185        1.249980   0.578908
  186        1.264121   0.544105
  187        1.298292   0.458886
  188        1.320327   0.404879
  189        1.328117   0.386254
  190        1.356226   0.322094
  191        1.422988   0.195952
  192        1.458546   0.145869
  193        1.496001   0.105089
  194        1.521024   0.083773
  195        1.582607   0.047067
  196        1.642662   0.026377
  197        1.740102   0.010121
  198        1.775926   0.007095
  199        1.826906   0.004274
  200        2.127990   0.000211
  201        2.282950   0.000045
  202        2.564320   0.000003
  203        2.860348   0.000000
  204        2.919428   0.000000
  205        3.198124   0.000000
  206        3.356175   0.000000
  207        3.974269   0.000000
  208        4.228376   0.000000
  209        4.523581   0.000000
  210        4.695083   0.000000
  211        4.921670   0.000000
  212        5.171701   0.000000
  213        5.244836   0.000000
  214        5.392299   0.000000
  215        5.676741   0.000000
  216        5.845631   0.000000
  217        6.141896   0.000000
  218        6.197665   0.000000
  219        6.411762   0.000000
  220        6.559967   0.000000
 
  0.1666667E+00  0.2500000E+00  0.0000000E+00  0.1851852E-01
    1      -11.156737   1.000000
    2       -7.768065   1.000000
    3       -6.507981   1.000000
    4       -6.049777   1.000000
    5       -5.938114   1.000000
    6       -5.824474   1.000000
    7       -5.418148   1.000000
    8       -5.327579   1.000000
    9       -5.274612   1.000000
   10       -5.248751   1.000000
   11       -5.216587   1.000000
   12       -5.180642   1.000000
   13       -5.080951   1.000000