    4    4    1    1
  0.2000000E+04  0.2000000E-08  0.2000000E-08  0.2000000E-08  0.5000000E-15
  1.000000000000000E-004
  CAR 
 unknown system                          
     10      1     10
 
  0.0000000E+00  0.0000000E+00  0.0000000E+00  0.1000000E+01
    1      -18.569076   1.000000
    2      -13.964426   1.000000
    3      -12.088728   1.000000
    4       -7.160429   1.000000
    5       -7.160321   1.000000
    6       -0.421747   0.000000
    7       -0.420538   0.000000
    8       -0.211690   0.000000
    9        0.041612   0.000000
   10        0.123709   0.000000
