<?xml version="1.0" encoding="ISO-8859-1"?>
<modeling>
 <generator>
  <i name="program" type="string">vasp </i>
  <i name="version" type="string">5.4.1  </i>
  <i name="subversion" type="string">24Jun15 (build Oct 10 2016 12:42:00) complex                          parallel </i>
  <i name="platform" type="string">IFC91_ompi </i>
  <i name="date" type="string">2018 06 20 </i>
  <i name="time" type="string">18:36:58 </i>
 </generator>
 <incar>
  <i type="string" name="PREC">normal</i>
  <i type="string" name="ALGO"> fast</i>
  <i type="int" name="ISPIN">     1</i>
  <i type="int" name="NELMDL">    -4</i>
  <i type="int" name="NELMIN">     4</i>
  <i name="EDIFF">      0.00000100</i>
  <i name="ENCUT">    400.00000000</i>
  <i type="string" name="LREAL"> auto</i>
  <i type="int" name="ISMEAR">    -1</i>
  <i name="SIGMA">      0.10000000</i>
  <i type="logical" name="LWAVE"> F  </i>
  <i type="logical" name="LCHARG"> F  </i>
  <v type="int" name="KPOINT_BSE">    -1     0     0     0</v>
  <i type="string" name="GGA"> PE</i>
 </incar>
 <kpoints>
  <generation param="Monkhorst-Pack">
   <v type="int" name="divisions">       6        6        1 </v>
   <v name="usershift">      0.00000000       0.00000000       0.00000000 </v>
   <v name="genvec1">      0.16666667      -0.00000000       0.00000000 </v>
   <v name="genvec2">      0.00000000       0.16666667       0.00000000 </v>
   <v name="genvec3">      0.00000000       0.00000000       1.00000000 </v>
   <v name="shift">      0.50000000       0.50000000       0.00000000 </v>
  </generation>
  <varray name="kpointlist" >
   <v>       0.08333333       0.08333333       0.00000000 </v>
   <v>       0.00000000       0.08333333       0.00000000 </v>
   <v>      -0.08333333       0.00000000       0.00000000 </v>
   <v>       0.25000000       0.08333333       0.00000000 </v>
   <v>       0.16666667       0.25000000       0.00000000 </v>
   <v>      -0.08333333       0.16666667       0.00000000 </v>
   <v>       0.16666667      -0.08333333       0.00000000 </v>
   <v>      -0.08333333      -0.25000000       0.00000000 </v>
   <v>      -0.25000000      -0.16666667       0.00000000 </v>
   <v>       0.41666667       0.08333333       0.00000000 </v>
   <v>       0.33333333       0.41666667       0.00000000 </v>
   <v>      -0.08333333       0.33333333       0.00000000 </v>
   <v>       0.33333333      -0.08333333       0.00000000 </v>
   <v>      -0.08333333      -0.41666667       0.00000000 </v>
   <v>      -0.41666667      -0.33333333       0.00000000 </v>
   <v>      -0.41666667       0.08333333       0.00000000 </v>
   <v>       0.50000000      -0.41666667       0.00000000 </v>
   <v>      -0.08333333       0.50000000       0.00000000 </v>
   <v>       0.50000000      -0.08333333       0.00000000 </v>
   <v>      -0.08333333       0.41666667       0.00000000 </v>
   <v>       0.41666667       0.50000000       0.00000000 </v>
   <v>      -0.25000000       0.08333333       0.00000000 </v>
   <v>      -0.33333333      -0.25000000       0.00000000 </v>
   <v>      -0.08333333      -0.33333333       0.00000000 </v>
   <v>      -0.33333333      -0.08333333       0.00000000 </v>
   <v>      -0.08333333       0.25000000       0.00000000 </v>
   <v>       0.25000000       0.33333333       0.00000000 </v>
   <v>      -0.08333333       0.08333333       0.00000000 </v>
   <v>      -0.16666667      -0.08333333       0.00000000 </v>
   <v>      -0.08333333      -0.16666667       0.00000000 </v>
   <v>       0.25000000       0.25000000       0.00000000 </v>
   <v>       0.00000000       0.25000000       0.00000000 </v>
   <v>      -0.25000000       0.00000000       0.00000000 </v>
   <v>       0.41666667       0.25000000       0.00000000 </v>
   <v>       0.16666667       0.41666667       0.00000000 </v>
   <v>      -0.25000000       0.16666667       0.00000000 </v>
   <v>       0.16666667      -0.25000000       0.00000000 </v>
   <v>      -0.25000000      -0.41666667       0.00000000 </v>
   <v>      -0.41666667      -0.16666667       0.00000000 </v>
   <v>      -0.41666667       0.25000000       0.00000000 </v>
   <v>       0.33333333      -0.41666667       0.00000000 </v>
   <v>      -0.25000000       0.33333333       0.00000000 </v>
   <v>       0.33333333      -0.25000000       0.00000000 </v>
   <v>      -0.25000000       0.41666667       0.00000000 </v>
   <v>       0.41666667      -0.33333333       0.00000000 </v>
   <v>      -0.25000000       0.25000000       0.00000000 </v>
   <v>       0.50000000      -0.25000000       0.00000000 </v>
   <v>      -0.25000000       0.50000000       0.00000000 </v>
   <v>       0.41666667       0.41666667       0.00000000 </v>
   <v>       0.00000000       0.41666667       0.00000000 </v>
   <v>      -0.41666667      -0.00000000       0.00000000 </v>
   <v>      -0.41666667       0.41666667       0.00000000 </v>
   <v>       0.16666667      -0.41666667       0.00000000 </v>
   <v>      -0.41666667       0.16666667       0.00000000 </v>
  </varray>
  <varray name="weights" >
   <v>       0.01851852 </v>
   <v>       0.01851852 </v>
   <v>       0.01851852 </v>
   <v>       0.01851852 </v>
   <v>       0.01851852 </v>
   <v>       0.01851852 </v>
   <v>       0.01851852 </v>
   <v>       0.01851852 </v>
   <v>       0.01851852 </v>
   <v>       0.01851852 </v>
   <v>       0.01851852 </v>
   <v>       0.01851852 </v>
   <v>       0.01851852 </v>
   <v>       0.01851852 </v>
   <v>       0.01851852 </v>
   <v>       0.01851852 </v>
   <v>       0.01851852 </v>
   <v>       0.01851852 </v>
   <v>       0.01851852 </v>
   <v>       0.01851852 </v>
   <v>       0.01851852 </v>
   <v>       0.01851852 </v>
   <v>       0.01851852 </v>
   <v>       0.01851852 </v>
   <v>       0.01851852 </v>
   <v>       0.01851852 </v>
   <v>       0.01851852 </v>
   <v>       0.01851852 </v>
   <v>       0.01851852 </v>
   <v>       0.01851852 </v>
   <v>       0.01851852 </v>
   <v>       0.01851852 </v>
   <v>       0.01851852 </v>
   <v>       0.01851852 </v>
   <v>       0.01851852 </v>
   <v>       0.01851852 </v>
   <v>       0.01851852 </v>
   <v>       0.01851852 </v>
   <v>       0.01851852 </v>
   <v>       0.01851852 </v>
   <v>       0.01851852 </v>
   <v>       0.01851852 </v>
   <v>       0.01851852 </v>
   <v>       0.01851852 </v>
   <v>       0.01851852 </v>
   <v>       0.01851852 </v>
   <v>       0.01851852 </v>
   <v>       0.01851852 </v>
   <v>       0.01851852 </v>
   <v>       0.01851852 </v>
   <v>       0.01851852 </v>
   <v>       0.01851852 </v>
   <v>       0.01851852 </v>
   <v>       0.01851852 </v>
  </varray>
 </kpoints>
 <parameters>
  <separator name="general" >
   <i type="string" name="SYSTEM">unknown system</i>
   <i type="logical" name="LCOMPAT"> F  </i>
  </separator>
  <separator name="electronic" >
   <i type="string" name="PREC">normal</i>
   <i name="ENMAX">    400.00000000</i>
   <i name="ENAUG">    644.87300000</i>
   <i name="EDIFF">      0.00000100</i>
   <i type="int" name="IALGO">    68</i>
   <i type="int" name="IWAVPR">    10</i>
   <i type="int" name="NBANDS">   220</i>
   <i name="NELECT">    367.00000000</i>
   <i type="int" name="TURBO">     0</i>
   <i type="int" name="IRESTART">     0</i>
   <i type="int" name="NREBOOT">     0</i>
   <i type="int" name="NMIN">     0</i>
   <i name="EREF">      0.00000000</i>
   <separator name="electronic smearing" >
    <i type="int" name="ISMEAR">    -1</i>
    <i name="SIGMA">      0.10000000</i>
    <i name="KSPACING">      0.50000000</i>
    <i type="logical" name="KGAMMA"> T  </i>
   </separator>
   <separator name="electronic projectors" >
    <i type="logical" name="LREAL"> T  </i>
    <v name="ROPT">     -0.00050000     -0.00050000     -0.00050000</v>
    <i type="int" name="LMAXPAW">  -100</i>
    <i type="int" name="LMAXMIX">     2</i>
    <i type="logical" name="NLSPLINE"> F  </i>
   </separator>
   <separator name="electronic startup" >
    <i type="int" name="ISTART">     0</i>
    <i type="int" name="ICHARG">     2</i>
    <i type="int" name="INIWAV">     1</i>
   </separator>
   <separator name="electronic spin" >
    <i type="int" name="ISPIN">     1</i>
    <i type="logical" name="LNONCOLLINEAR"> F  </i>
    <v name="MAGMOM">      1.00000000      1.00000000      1.00000000      1.00000000      1.00000000      1.00000000      1.00000000      1.00000000      1.00000000      1.00000000      1.00000000      1.00000000      1.00000000      1.00000000      1.00000000      1.00000000      1.00000000      1.00000000      1.00000000      1.00000000
      1.00000000      1.00000000      1.00000000      1.00000000      1.00000000      1.00000000      1.00000000      1.00000000      1.00000000      1.00000000      1.00000000      1.00000000      1.00000000      1.00000000      1.00000000      1.00000000      1.00000000      1.00000000      1.00000000      1.00000000
</v>
    <i name="NUPDOWN">     -1.00000000</i>
    <i type="logical" name="LSORBIT"> F  </i>
    <v name="SAXIS">      0.00000000      0.00000000      1.00000000</v>
    <i type="logical" name="LSPIRAL"> F  </i>
    <v name="QSPIRAL">      0.00000000      0.00000000      0.00000000</v>
    <i type="logical" name="LZEROZ"> F  </i>
   </separator>
   <separator name="electronic exchange-correlation" >
    <i type="logical" name="LASPH"> F  </i>
    <i type="logical" name="LMETAGGA"> F  </i>
   </separator>
   <separator name="electronic convergence" >
    <i type="int" name="NELM">    60</i>
    <i type="int" name="NELMDL">    -4</i>
    <i type="int" name="NELMIN">     4</i>
    <i name="ENINI">    400.00000000</i>
    <separator name="electronic convergence detail" >
     <i type="logical" name="LDIAG"> T  </i>
     <i type="logical" name="LSUBROT"> F  </i>
     <i name="WEIMIN">      0.00000000</i>
     <i name="EBREAK">      0.00000000</i>
     <i name="DEPER">      0.30000000</i>
     <i type="int" name="NRMM">     4</i>
     <i name="TIME">      0.40000000</i>
    </separator>
   </separator>
   <separator name="electronic mixer" >
    <i name="AMIX">      0.40000000</i>
    <i name="BMIX">      1.00000000</i>
    <i name="AMIN">      0.10000000</i>
    <i name="AMIX_MAG">      1.60000000</i>
    <i name="BMIX_MAG">      1.00000000</i>
    <separator name="electronic mixer details" >
     <i type="int" name="IMIX">     4</i>
     <i type="logical" name="MIXFIRST"> F  </i>
     <i type="int" name="MAXMIX">   -45</i>
     <i name="WC">    100.00000000</i>
     <i type="int" name="INIMIX">     1</i>
     <i type="int" name="MIXPRE">     1</i>
     <i type="int" name="MREMOVE">     5</i>
    </separator>
   </separator>
   <separator name="electronic dipolcorrection" >
    <i type="logical" name="LDIPOL"> F  </i>
    <i type="logical" name="LMONO"> F  </i>
    <i type="int" name="IDIPOL">     0</i>
    <i name="EPSILON">      1.00000000</i>
    <v name="DIPOL">   -100.00000000   -100.00000000   -100.00000000</v>
    <i name="EFIELD">      0.00000000</i>
   </separator>
  </separator>
  <separator name="grids" >
   <i type="int" name="NGX">    42</i>
   <i type="int" name="NGY">    42</i>
   <i type="int" name="NGZ">   108</i>
   <i type="int" name="NGXF">    84</i>
   <i type="int" name="NGYF">    84</i>
   <i type="int" name="NGZF">   216</i>
   <i type="logical" name="ADDGRID"> F  </i>
  </separator>
  <separator name="ionic" >
   <i type="int" name="NSW">     0</i>
   <i type="int" name="IBRION">    -1</i>
   <i type="int" name="ISIF">     2</i>
   <i name="PSTRESS">      0.00000000</i>
   <i name="EDIFFG">      0.00001000</i>
   <i type="int" name="NFREE">     0</i>
   <i name="POTIM">      0.50000000</i>
   <i name="SMASS">     -3.00000000</i>
   <i name="SCALEE">      1.00000000</i>
  </separator>
  <separator name="ionic md" >
   <i name="TEBEG">      0.00010000</i>
   <i name="TEEND">      0.00010000</i>
   <i type="int" name="NBLOCK">     1</i>
   <i type="int" name="KBLOCK">     1</i>
   <i type="int" name="NPACO">   256</i>
   <i name="APACO">     16.00000000</i>
  </separator>
  <separator name="symmetry" >
   <i type="int" name="ISYM">     2</i>
   <i name="SYMPREC">      0.00001000</i>
  </separator>
  <separator name="dos" >
   <i type="logical" name="LORBIT"> F  </i>
   <v name="RWIGS">     -1.00000000     -1.00000000     -1.00000000</v>
   <i type="int" name="NEDOS">   301</i>
   <i name="EMIN">     10.00000000</i>
   <i name="EMAX">    -10.00000000</i>
   <i name="EFERMI">      0.00000000</i>
  </separator>
  <separator name="writing" >
   <i type="int" name="NWRITE">     2</i>
   <i type="logical" name="LWAVE"> F  </i>
   <i type="logical" name="LCHARG"> F  </i>
   <i type="logical" name="LPARD"> F  </i>
   <i type="logical" name="LVTOT"> F  </i>
   <i type="logical" name="LVHAR"> F  </i>
   <i type="logical" name="LELF"> F  </i>
   <i type="logical" name="LOPTICS"> F  </i>
   <v name="STM">      0.00000000      0.00000000      0.00000000      0.00000000      0.00000000      0.00000000      0.00000000</v>
  </separator>
  <separator name="performance" >
   <i type="int" name="NPAR">     5</i>
   <i type="int" name="NSIM">     4</i>
   <i type="int" name="NBLK">    -1</i>
   <i type="logical" name="LPLANE"> T  </i>
   <i type="logical" name="LSCALAPACK"> T  </i>
   <i type="logical" name="LSCAAWARE"> F  </i>
   <i type="logical" name="LSCALU"> F  </i>
   <i type="logical" name="LASYNC"> F  </i>
   <i type="logical" name="LORBITALREAL"> F  </i>
  </separator>
  <separator name="miscellaneous" >
   <i type="int" name="IDIOT">     3</i>
   <i type="logical" name="LMUSIC"> F  </i>
   <v name="POMASS">    195.08000000     12.01100000      1.00000000</v>
   <v name="DARWINR">      0.00000000      0.00000000      0.00000000</v>
   <v name="DARWINV">      1.00000000      1.00000000      1.00000000</v>
   <i type="logical" name="LCORR"> T  </i>
  </separator>
  <i type="logical" name="GGA_COMPAT"> T  </i>
  <i type="logical" name="LBERRY"> F  </i>
  <i type="int" name="ICORELEVEL">     0</i>
  <i type="logical" name="LDAU"> F  </i>
  <i type="int" name="I_CONSTRAINED_M">     0</i>
  <separator name="electronic exchange-correlation" >
   <i type="string" name="GGA">PE</i>
   <i type="int" name="VOSKOWN">     0</i>
   <i type="logical" name="LHFCALC"> F  </i>
   <i type="string" name="PRECFOCK"></i>
   <i type="logical" name="LSYMGRAD"> F  </i>
   <i type="logical" name="LHFONE"> F  </i>
   <i type="logical" name="LRHFCALC"> F  </i>
   <i type="logical" name="LTHOMAS"> F  </i>
   <i type="logical" name="LMODELHF"> F  </i>
   <i name="ENCUT4O">     -1.00000000</i>
   <i type="int" name="EXXOEP">     0</i>
   <i type="int" name="FOURORBIT">     0</i>
   <i name="AEXX">      0.00000000</i>
   <i name="HFALPHA">      0.00000000</i>
   <i name="MCALPHA">      0.00000000</i>
   <i name="ALDAX">      1.00000000</i>
   <i name="AGGAX">      1.00000000</i>
   <i name="ALDAC">      1.00000000</i>
   <i name="AGGAC">      1.00000000</i>
   <i type="int" name="NKREDX">     1</i>
   <i type="int" name="NKREDY">     1</i>
   <i type="int" name="NKREDZ">     1</i>
   <i type="logical" name="SHIFTRED"> F  </i>
   <i type="logical" name="ODDONLY"> F  </i>
   <i type="logical" name="EVENONLY"> F  </i>
   <i type="int" name="LMAXFOCK">     0</i>
   <i type="int" name="NMAXFOCKAE">     0</i>
   <i type="logical" name="LFOCKAEDFT"> F  </i>
   <i name="HFSCREEN">      0.00000000</i>
   <i name="HFSCREENC">      0.00000000</i>
   <i type="int" name="NBANDSGWLOW">     0</i>
  </separator>
  <separator name="vdW DFT" >
   <i type="logical" name="LUSE_VDW"> F  </i>
   <i name="Zab_VDW">     -0.84910000</i>
   <i name="PARAM1">      0.12340000</i>
   <i name="PARAM2">      1.00000000</i>
   <i name="PARAM3">      0.00000000</i>
  </separator>
  <separator name="model GW" >
   <i type="int" name="MODEL_GW">     0</i>
   <i name="MODEL_EPS0">     20.15524730</i>
   <i name="MODEL_ALPHA">      1.00000000</i>
  </separator>
  <separator name="linear response parameters" >
   <i type="logical" name="LEPSILON"> F  </i>
   <i type="logical" name="LRPA"> F  </i>
   <i type="logical" name="LNABLA"> F  </i>
   <i type="logical" name="LVEL"> F  </i>
   <i type="int" name="KINTER">     0</i>
   <i name="CSHIFT">      0.10000000</i>
   <i name="OMEGAMAX">     -1.00000000</i>
   <i name="DEG_THRESHOLD">      0.00200000</i>
  </separator>
  <separator name="orbital magnetization" >
   <i type="logical" name="NUCIND"> F  </i>
   <v name="MAGPOS">      0.00000000      0.00000000      0.00000000</v>
   <i type="logical" name="LNICSALL"> T  </i>
   <i type="logical" name="ORBITALMAG"> F  </i>
   <i type="logical" name="LMAGBLOCH"> F  </i>
   <i type="logical" name="LCHIMAG"> F  </i>
   <i type="logical" name="LGAUGE"> T  </i>
   <i type="int" name="MAGATOM">     0</i>
   <v name="MAGDIPOL">      0.00000000      0.00000000      0.00000000</v>
   <v name="AVECCONST">      0.00000000      0.00000000      0.00000000</v>
  </separator>
  <separator name="response functions" >
   <i type="logical" name="LADDER"> F  </i>
   <i type="logical" name="LFXC"> F  </i>
   <i type="logical" name="LHARTREE"> T  </i>
   <i type="int" name="IBSE">     0</i>
   <v type="int" name="KPOINT">    -1     0     0     0</v>
   <i type="logical" name="LTCTE"> F  </i>
   <i type="logical" name="LTETE"> F  </i>
   <i type="logical" name="LTRIPLET"> F  </i>
   <i type="logical" name="LFXCEPS"> F  </i>
   <i type="logical" name="LFXHEG"> F  </i>
   <i type="int" name="NATURALO">     0</i>
   <i type="logical" name="L2ORDER"> F  </i>
   <i type="logical" name="LUSEW"> F  </i>
   <i name="ENCUTGW">     -2.00000000</i>
   <i name="ENCUTGWSOFT">     -2.00000000</i>
   <i name="ENCUTLF">     -1.00000000</i>
   <i type="int" name="LMAXMP2">    -1</i>
   <i name="SCISSOR">      0.00000000</i>
   <i type="int" name="NOMEGA">     0</i>
   <i type="int" name="NOMEGAR">     0</i>
   <i type="int" name="NBANDSGW">    -1</i>
   <i type="int" name="NBANDSO">    -1</i>
   <i type="int" name="NBANDSV">    -1</i>
   <i type="int" name="NELM">     1</i>
   <i type="int" name="NELMHF">     1</i>
   <i type="int" name="DIM">     3</i>
   <i type="int" name="ANTIRES">     0</i>
   <i name="OMEGAMAX">    -30.00000000</i>
   <i name="OMEGAMIN">    -30.00000000</i>
   <i name="OMEGATL">   -200.00000000</i>
   <i type="int" name="OMEGAGRID">     0</i>
   <i name="CSHIFT">     -0.10000000</i>
   <i type="logical" name="SELFENERGY"> F  </i>
   <i type="logical" name="LSPECTRAL"> F  </i>
   <i type="logical" name="LSPECTRALGW"> F  </i>
   <i type="logical" name="LSINGLES"> F  </i>
   <i type="logical" name="LFERMIGW"> F  </i>
   <i type="logical" name="ODDONLYGW"> F  </i>
   <i type="logical" name="EVENONLYGW"> F  </i>
   <i type="int" name="NKREDLFX">     1</i>
   <i type="int" name="NKREDLFY">     1</i>
   <i type="int" name="NKREDLFZ">     1</i>
   <i type="int" name="MAXMEM">  1800</i>
   <i type="int" name="TELESCOPE">     0</i>
   <i type="int" name="TAUPAR">     1</i>
   <i type="int" name="OMEGAPAR">    -1</i>
   <i name="LAMBDA">      1.00000000</i>
  </separator>
  <separator name="External order field" >
   <i name="OFIELD_KAPPA">      0.00000000</i>
   <v name="OFIELD_K">      0.00000000      0.00000000      0.00000000</v>
   <i name="OFIELD_Q6_NEAR">      0.00000000</i>
   <i name="OFIELD_Q6_FAR">      0.00000000</i>
   <i name="OFIELD_A">      0.00000000</i>
  </separator>
 </parameters>
 <atominfo>
  <atoms>      40 </atoms>
  <types>       3 </types>
  <array name="atoms" >
   <dimension dim="1">ion</dimension>
   <field type="string">element</field>
   <field type="int">atomtype</field>
   <set>
    <rc><c>Pt</c><c>   1</c></rc>
    <rc><c>Pt</c><c>   1</c></rc>
    <rc><c>Pt</c><c>   1</c></rc>
    <rc><c>Pt</c><c>   1</c></rc>
    <rc><c>Pt</c><c>   1</c></rc>
    <rc><c>Pt</c><c>   1</c></rc>
    <rc><c>Pt</c><c>   1</c></rc>
    <rc><c>Pt</c><c>   1</c></rc>
    <rc><c>Pt</c><c>   1</c></rc>
    <rc><c>Pt</c><c>   1</c></rc>
    <rc><c>Pt</c><c>   1</c></rc>
    <rc><c>Pt</c><c>   1</c></rc>
    <rc><c>Pt</c><c>   1</c></rc>
    <rc><c>Pt</c><c>   1</c></rc>
    <rc><c>Pt</c><c>   1</c></rc>
    <rc><c>Pt</c><c>   1</c></rc>
    <rc><c>Pt</c><c>   1</c></rc>
    <rc><c>Pt</c><c>   1</c></rc>
    <rc><c>Pt</c><c>   1</c></rc>
    <rc><c>Pt</c><c>   1</c></rc>
    <rc><c>Pt</c><c>   1</c></rc>
    <rc><c>Pt</c><c>   1</c></rc>
    <rc><c>Pt</c><c>   1</c></rc>
    <rc><c>Pt</c><c>   1</c></rc>
    <rc><c>Pt</c><c>   1</c></rc>
    <rc><c>Pt</c><c>   1</c></rc>
    <rc><c>Pt</c><c>   1</c></rc>
    <rc><c>Pt</c><c>   1</c></rc>
    <rc><c>Pt</c><c>   1</c></rc>
    <rc><c>Pt</c><c>   1</c></rc>
    <rc><c>Pt</c><c>   1</c></rc>
    <rc><c>Pt</c><c>   1</c></rc>
    <rc><c>Pt</c><c>   1</c></rc>
    <rc><c>Pt</c><c>   1</c></rc>
    <rc><c>Pt</c><c>   1</c></rc>
    <rc><c>Pt</c><c>   1</c></rc>
    <rc><c>C </c><c>   2</c></rc>
    <rc><c>H </c><c>   3</c></rc>
    <rc><c>H </c><c>   3</c></rc>
    <rc><c>H </c><c>   3</c></rc>
   </set>
  </array>
  <array name="atomtypes" >
   <dimension dim="1">type</dimension>
   <field type="int">atomspertype</field>
   <field type="string">element</field>
   <field>mass</field>
   <field>valence</field>
   <field type="string">pseudopotential</field>
   <set>
    <rc><c>  36</c><c>Pt</c><c>    195.08000000</c><c>     10.00000000</c><c>  PAW_PBE Pt 04Feb2005                  </c></rc>
    <rc><c>   1</c><c>C </c><c>     12.01100000</c><c>      4.00000000</c><c>  PAW_PBE C 08Apr2002                   </c></rc>
    <rc><c>   3</c><c>H </c><c>      1.00000000</c><c>      1.00000000</c><c>  PAW_PBE H 15Jun2001                   </c></rc>
   </set>
  </array>
 </atominfo>
 <structure name="initialpos" >
  <crystal>
   <varray name="basis" >
    <v>       8.42164176       0.00000000       0.00000000 </v>
    <v>       4.21082088       7.29335571       0.00000000 </v>
    <v>       0.00000000       0.00000000      21.87624171 </v>
   </varray>
   <i name="volume">   1343.68315334 </i>
   <varray name="rec_basis" >
    <v>       0.11874169      -0.06855555       0.00000000 </v>
    <v>       0.00000000       0.13711110       0.00000000 </v>
    <v>       0.00000000       0.00000000       0.04571169 </v>
   </varray>
  </crystal>
  <varray name="positions" >
   <v>       0.00000000       0.00000000       0.34283768 </v>
   <v>       0.33333333       0.00000000       0.34283768 </v>
   <v>       0.66666667       0.00000000       0.34283768 </v>
   <v>       0.00000000       0.33333333       0.34283768 </v>
   <v>       0.33333333       0.33333333       0.34283768 </v>
   <v>       0.66666667       0.33333333       0.34283768 </v>
   <v>       0.00000000       0.66666667       0.34283768 </v>
   <v>       0.33333333       0.66666667       0.34283768 </v>
   <v>       0.66666667       0.66666667       0.34283768 </v>
   <v>       0.11111111       0.11111111       0.44761256 </v>
   <v>       0.44444444       0.11111111       0.44761256 </v>
   <v>       0.77777778       0.11111111       0.44761256 </v>
   <v>       0.11111111       0.44444444       0.44761256 </v>
   <v>       0.44444444       0.44444444       0.44761256 </v>
   <v>       0.77777778       0.44444444       0.44761256 </v>
   <v>       0.11111111       0.77777778       0.44761256 </v>
   <v>       0.44444444       0.77777778       0.44761256 </v>
   <v>       0.77777778       0.77777778       0.44761256 </v>
   <v>       0.88768084       0.22385623       0.55081838 </v>
   <v>       0.22262956       0.22485013       0.55255386 </v>
   <v>       0.55180616       0.22498746       0.55242940 </v>
   <v>       0.88806903       0.55698725       0.55095161 </v>
   <v>       0.22251655       0.55442027       0.55251907 </v>
   <v>       0.55435930       0.55695372       0.55099908 </v>
   <v>       0.88776732       0.89045419       0.55081174 </v>
   <v>       0.22116943       0.89038639       0.55088887 </v>
   <v>       0.55435864       0.89057582       0.55098278 </v>
   <v>       0.99729754       0.00322725       0.65598427 </v>
   <v>       0.33054062       0.00277141       0.65587566 </v>
   <v>       0.66466105       0.00284145       0.65585100 </v>
   <v>       0.99683920       0.33636318       0.65583676 </v>
   <v>       0.33065584       0.33678897       0.66602411 </v>
   <v>       0.66479558       0.33641287       0.65584196 </v>
   <v>       0.99692766       0.67061464       0.65583456 </v>
   <v>       0.33077588       0.67048493       0.65584563 </v>
   <v>       0.66396198       0.66983993       0.65594963 </v>
   <v>       0.33009546       0.33804416       0.76084461 </v>
   <v>       0.18706160       0.41492418       0.77628546 </v>
   <v>       0.39631787       0.19531640       0.77663768 </v>
   <v>       0.40664852       0.40465297       0.77617188 </v>
  </varray>
  <varray name="selective"  type="logical" >
   <v type="logical" >  F  F  F </v>
   <v type="logical" >  F  F  F </v>
   <v type="logical" >  F  F  F </v>
   <v type="logical" >  F  F  F </v>
   <v type="logical" >  F  F  F </v>
   <v type="logical" >  F  F  F </v>
   <v type="logical" >  F  F  F </v>
   <v type="logical" >  F  F  F </v>
   <v type="logical" >  F  F  F </v>
   <v type="logical" >  F  F  F </v>
   <v type="logical" >  F  F  F </v>
   <v type="logical" >  F  F  F </v>
   <v type="logical" >  F  F  F </v>
   <v type="logical" >  F  F  F </v>
   <v type="logical" >  F  F  F </v>
   <v type="logical" >  F  F  F </v>
   <v type="logical" >  F  F  F </v>
   <v type="logical" >  F  F  F </v>
   <v type="logical" >  T  T  T </v>
   <v type="logical" >  T  T  T </v>
   <v type="logical" >  T  T  T </v>
   <v type="logical" >  T  T  T </v>
   <v type="logical" >  T  T  T </v>
   <v type="logical" >  T  T  T </v>
   <v type="logical" >  T  T  T </v>
   <v type="logical" >  T  T  T </v>
   <v type="logical" >  T  T  T </v>
   <v type="logical" >  T  T  T </v>
   <v type="logical" >  T  T  T </v>
   <v type="logical" >  T  T  T </v>
   <v type="logical" >  T  T  T </v>
   <v type="logical" >  T  T  T </v>
   <v type="logical" >  T  T  T </v>
   <v type="logical" >  T  T  T </v>
   <v type="logical" >  T  T  T </v>
   <v type="logical" >  T  T  T </v>
   <v type="logical" >  T  T  T </v>
   <v type="logical" >  T  T  T </v>
   <v type="logical" >  T  T  T </v>
   <v type="logical" >  T  T  T </v>
  </varray>
  <nose>
   <v>      -3.00000000       0.00000000       0.00010000       0.00010000 </v>
  </nose>
 </structure>
 <calculation>
  <scstep>
   <time name="dav">  133.59  134.63</time>
   <time name="total">  134.86  136.04</time>
   <energy>
    <i name="alphaZ">    942.28241388 </i>
    <i name="ewald">  91938.07308661 </i>
    <i name="hartreedc">-120212.05886931 </i>
    <i name="XCdc">    141.07246399 </i>
    <i name="pawpsdc">  25175.37140410 </i>
    <i name="pawaedc"> -24157.77078718 </i>
    <i name="eentropy">     -0.53936933 </i>
    <i name="bandstr">   1919.29207423 </i>
    <i name="atom">  26432.59338697 </i>
    <i name="e_fr_energy">   2178.31580395 </i>
    <i name="e_wo_entrp">   2178.85517328 </i>
    <i name="e_0_energy">   2178.58548862 </i>
   </energy>
  </scstep>
  <scstep>
   <time name="dav">  167.13  168.06</time>
   <time name="total">  167.18  168.18</time>
   <energy>
    <i name="e_fr_energy">    -81.72717913 </i>
    <i name="e_wo_entrp">    -80.68884525 </i>
    <i name="e_0_energy">    -81.20801219 </i>
   </energy>
  </scstep>
  <scstep>
   <time name="dav">  166.06  166.70</time>
   <time name="total">  166.07  166.74</time>
   <energy>
    <i name="e_fr_energy">   -239.80822348 </i>
    <i name="e_wo_entrp">   -237.91557155 </i>
    <i name="e_0_energy">   -238.86189752 </i>
   </energy>
  </scstep>
  <scstep>
   <time name="dav">  188.05  188.53</time>
   <time name="total">  190.11  190.62</time>
   <energy>
    <i name="e_fr_energy">   -246.85320383 </i>
    <i name="e_wo_entrp">   -244.89299216 </i>
    <i name="e_0_energy">   -245.87309799 </i>
   </energy>
  </scstep>
  <scstep>
   <time name="diag">   12.63   12.65</time>
   <time name="diis">   46.35   46.89</time>
   <time name="orth">    3.54    3.60</time>
   <time name="total">   65.38   66.05</time>
   <energy>
    <i name="e_fr_energy">   -235.51400987 </i>
    <i name="e_wo_entrp">   -233.41944536 </i>
    <i name="e_0_energy">   -234.46672761 </i>
   </energy>
  </scstep>
  <scstep>
   <time name="diag">   13.14   13.15</time>
   <time name="diis">   47.96   48.56</time>
   <time name="orth">    3.76    3.89</time>
   <time name="total">   66.97   67.74</time>
   <energy>
    <i name="e_fr_energy">   -275.80850364 </i>
    <i name="e_wo_entrp">   -274.59427026 </i>
    <i name="e_0_energy">   -275.20138695 </i>
   </energy>
  </scstep>
  <scstep>
   <time name="diag">   13.33   13.40</time>
   <time name="diis">   52.30   53.69</time>
   <time name="orth">    3.82    3.97</time>
   <time name="total">   71.61   73.50</time>
   <energy>
    <i name="e_fr_energy">   -232.63473099 </i>
    <i name="e_wo_entrp">   -230.62608043 </i>
    <i name="e_0_energy">   -231.63040571 </i>
   </energy>
  </scstep>
  <scstep>
   <time name="diag">   12.76   12.82</time>
   <time name="diis">   45.87   46.29</time>
   <time name="orth">    3.43    3.44</time>
   <time name="total">   64.86   65.47</time>
   <energy>
    <i name="e_fr_energy">   -241.92606661 </i>
    <i name="e_wo_entrp">   -240.45165996 </i>
    <i name="e_0_energy">   -241.18886329 </i>
   </energy>
  </scstep>
  <scstep>
   <time name="diag">   12.77   12.77</time>
   <time name="diis">   47.23   47.95</time>
   <time name="orth">    3.52    3.54</time>
   <time name="total">   66.05   66.85</time>
   <energy>
    <i name="e_fr_energy">   -238.52961769 </i>
    <i name="e_wo_entrp">   -236.82454597 </i>
    <i name="e_0_energy">   -237.67708183 </i>
   </energy>
  </scstep>
  <scstep>
   <time name="diag">   12.62   12.67</time>
   <time name="diis">   45.12   45.42</time>
   <time name="orth">    3.34    3.36</time>
   <time name="total">   63.10   63.50</time>
   <energy>
    <i name="e_fr_energy">   -230.42620582 </i>
    <i name="e_wo_entrp">   -228.31618908 </i>
    <i name="e_0_energy">   -229.37119745 </i>
   </energy>
  </scstep>
  <scstep>
   <time name="diag">   12.81   12.80</time>
   <time name="diis">   49.44   50.28</time>
   <time name="orth">    3.84    4.01</time>
   <time name="total">   68.61   69.65</time>
   <energy>
    <i name="e_fr_energy">   -229.74308556 </i>
    <i name="e_wo_entrp">   -227.59459645 </i>
    <i name="e_0_energy">   -228.66884101 </i>
   </energy>
  </scstep>
  <scstep>
   <time name="diag">   13.16   13.18</time>
   <time name="diis">   48.23   48.65</time>
   <time name="orth">    3.79    3.83</time>
   <time name="total">   67.29   67.80</time>
   <energy>
    <i name="e_fr_energy">   -229.63853624 </i>
    <i name="e_wo_entrp">   -227.48410930 </i>
    <i name="e_0_energy">   -228.56132277 </i>
   </energy>
  </scstep>
  <scstep>
   <time name="diag">   13.43   13.43</time>
   <time name="diis">   51.54   51.69</time>
   <time name="orth">    3.74    3.78</time>
   <time name="total">   71.49   71.93</time>
   <energy>
    <i name="e_fr_energy">   -229.58911985 </i>
    <i name="e_wo_entrp">   -227.43713345 </i>
    <i name="e_0_energy">   -228.51312665 </i>
   </energy>
  </scstep>
  <scstep>
   <time name="diag">   12.88   12.96</time>
   <time name="diis">   46.87   47.18</time>
   <time name="orth">    3.69    3.69</time>
   <time name="total">   66.43   66.86</time>
   <energy>
    <i name="e_fr_energy">   -229.57454095 </i>
    <i name="e_wo_entrp">   -227.42495698 </i>
    <i name="e_0_energy">   -228.49974897 </i>
   </energy>
  </scstep>
  <scstep>
   <time name="diag">   14.29   14.49</time>
   <time name="diis">   52.65   53.06</time>
   <time name="orth">    4.00    4.00</time>
   <time name="total">   74.75   75.39</time>
   <energy>
    <i name="e_fr_energy">   -229.56790523 </i>
    <i name="e_wo_entrp">   -227.42072421 </i>
    <i name="e_0_energy">   -228.49431472 </i>
   </energy>
  </scstep>
  <scstep>
   <time name="diag">   12.52   12.56</time>
   <time name="diis">   46.84   47.15</time>
   <time name="orth">    3.54    3.54</time>
   <time name="total">   66.42   66.86</time>
   <energy>
    <i name="e_fr_energy">   -229.56527267 </i>
    <i name="e_wo_entrp">   -227.41542433 </i>
    <i name="e_0_energy">   -228.49034850 </i>
   </energy>
  </scstep>
  <scstep>
   <time name="diag">   13.02   13.13</time>
   <time name="diis">   45.71   46.16</time>
   <time name="orth">    3.69    3.70</time>
   <time name="total">   65.43   66.02</time>
   <energy>
    <i name="e_fr_energy">   -229.56443684 </i>
    <i name="e_wo_entrp">   -227.41338776 </i>
    <i name="e_0_energy">   -228.48891230 </i>
   </energy>
  </scstep>
  <scstep>
   <time name="diag">   13.89   13.96</time>
   <time name="diis">   44.62   44.76</time>
   <time name="orth">    4.66    4.74</time>
   <time name="total">   66.99   67.29</time>
   <energy>
    <i name="e_fr_energy">   -229.56382219 </i>
    <i name="e_wo_entrp">   -227.41222266 </i>
    <i name="e_0_energy">   -228.48802242 </i>
   </energy>
  </scstep>
  <scstep>
   <time name="diag">   14.25   14.31</time>
   <time name="diis">   47.44   47.61</time>
   <time name="orth">    3.63    3.65</time>
   <time name="total">   69.19   69.46</time>
   <energy>
    <i name="e_fr_energy">   -229.56380700 </i>
    <i name="e_wo_entrp">   -227.41234606 </i>
    <i name="e_0_energy">   -228.48807653 </i>
   </energy>
  </scstep>
  <scstep>
   <time name="diag">   13.41   13.41</time>
   <time name="diis">   50.34   50.96</time>
   <time name="orth">    3.72    3.73</time>
   <time name="total">   70.38   71.02</time>
   <energy>
    <i name="e_fr_energy">   -229.56371593 </i>
    <i name="e_wo_entrp">   -227.41229819 </i>
    <i name="e_0_energy">   -228.48800706 </i>
   </energy>
  </scstep>
  <scstep>
   <time name="diag">   17.05   17.09</time>
   <time name="diis">   48.38   48.94</time>
   <time name="orth">    3.77    3.78</time>
   <time name="total">   72.83   73.68</time>
   <energy>
    <i name="e_fr_energy">   -229.56372431 </i>
    <i name="e_wo_entrp">   -227.41214023 </i>
    <i name="e_0_energy">   -228.48793227 </i>
   </energy>
  </scstep>
  <scstep>
   <time name="diag">   15.41   15.54</time>
   <time name="diis">   46.12   46.66</time>
   <time name="orth">    3.69    3.75</time>
   <time name="total">   67.89   68.88</time>
   <energy>
    <i name="e_fr_energy">   -229.56380913 </i>
    <i name="e_wo_entrp">   -227.41218315 </i>
    <i name="e_0_energy">   -228.48799614 </i>
   </energy>
  </scstep>
  <scstep>
   <time name="diag">   14.03   14.19</time>
   <time name="diis">   50.82   51.22</time>
   <time name="orth">    3.89    3.99</time>
   <time name="total">   71.76   72.44</time>
   <energy>
    <i name="e_fr_energy">   -229.56393541 </i>
    <i name="e_wo_entrp">   -227.41250897 </i>
    <i name="e_0_energy">   -228.48822219 </i>
   </energy>
  </scstep>
  <scstep>
   <time name="diag">   13.47   13.49</time>
   <time name="diis">   47.75   48.51</time>
   <time name="orth">    3.68    3.75</time>
   <time name="total">   67.80   68.74</time>
   <energy>
    <i name="e_fr_energy">   -229.56411674 </i>
    <i name="e_wo_entrp">   -227.41296553 </i>
    <i name="e_0_energy">   -228.48854114 </i>
   </energy>
  </scstep>
  <scstep>
   <time name="diag">   15.53   15.59</time>
   <time name="diis">   43.87   44.56</time>
   <time name="orth">    3.45    3.47</time>
   <time name="total">   66.88   67.67</time>
   <energy>
    <i name="e_fr_energy">   -229.56430293 </i>
    <i name="e_wo_entrp">   -227.41317173 </i>
    <i name="e_0_energy">   -228.48873733 </i>
   </energy>
  </scstep>
  <scstep>
   <time name="diag">   13.64   13.65</time>
   <time name="diis">   48.64   48.98</time>
   <time name="orth">    3.86    3.90</time>
   <time name="total">   68.27   68.70</time>
   <energy>
    <i name="e_fr_energy">   -229.56456130 </i>
    <i name="e_wo_entrp">   -227.41326533 </i>
    <i name="e_0_energy">   -228.48891332 </i>
   </energy>
  </scstep>
  <scstep>
   <time name="diag">   12.79   12.78</time>
   <time name="diis">   37.50   37.81</time>
   <time name="orth">    3.62    3.62</time>
   <time name="total">   56.65   57.11</time>
   <energy>
    <i name="e_fr_energy">   -229.56466399 </i>
    <i name="e_wo_entrp">   -227.41334711 </i>
    <i name="e_0_energy">   -228.48900555 </i>
   </energy>
  </scstep>
  <scstep>
   <time name="diag">   13.02   13.02</time>
   <time name="diis">   32.83   33.39</time>
   <time name="orth">    3.61    3.63</time>
   <time name="total">   51.56   52.18</time>
   <energy>
    <i name="e_fr_energy">   -229.56477447 </i>
    <i name="e_wo_entrp">   -227.41341716 </i>
    <i name="e_0_energy">   -228.48909581 </i>
   </energy>
  </scstep>
  <scstep>
   <time name="diag">   13.30   13.32</time>
   <time name="diis">   32.47   32.75</time>
   <time name="orth">    3.91    4.00</time>
   <time name="total">   52.51   53.00</time>
   <energy>
    <i name="e_fr_energy">   -229.56485591 </i>
    <i name="e_wo_entrp">   -227.41345223 </i>
    <i name="e_0_energy">   -228.48915407 </i>
   </energy>
  </scstep>
  <scstep>
   <time name="diag">   13.44   13.55</time>
   <time name="diis">   33.83   34.39</time>
   <time name="orth">    3.68    3.76</time>
   <time name="total">   53.08   53.90</time>
   <energy>
    <i name="e_fr_energy">   -229.56499415 </i>
    <i name="e_wo_entrp">   -227.41350912 </i>
    <i name="e_0_energy">   -228.48925164 </i>
   </energy>
  </scstep>
  <scstep>
   <time name="diag">   12.86   12.86</time>
   <time name="diis">   28.27   28.52</time>
   <time name="orth">    3.54    3.55</time>
   <time name="total">   47.32   47.65</time>
   <energy>
    <i name="e_fr_energy">   -229.56504134 </i>
    <i name="e_wo_entrp">   -227.41358092 </i>
    <i name="e_0_energy">   -228.48931113 </i>
   </energy>
  </scstep>
  <scstep>
   <time name="diag">   12.70   12.72</time>
   <time name="diis">   27.47   27.62</time>
   <time name="orth">    3.53    3.56</time>
   <time name="total">   45.77   45.99</time>
   <energy>
    <i name="e_fr_energy">   -229.56507857 </i>
    <i name="e_wo_entrp">   -227.41364822 </i>
    <i name="e_0_energy">   -228.48936340 </i>
   </energy>
  </scstep>
  <scstep>
   <time name="diag">   12.69   12.71</time>
   <time name="diis">   25.21   25.38</time>
   <time name="orth">    3.39    3.39</time>
   <time name="total">   43.92   44.12</time>
   <energy>
    <i name="e_fr_energy">   -229.56508983 </i>
    <i name="e_wo_entrp">   -227.41366222 </i>
    <i name="e_0_energy">   -228.48937602 </i>
   </energy>
  </scstep>
  <scstep>
   <time name="diag">   12.37   12.37</time>
   <time name="diis">   26.95   27.02</time>
   <time name="orth">    3.91    4.35</time>
   <time name="total">   45.33   45.86</time>
   <energy>
    <i name="e_fr_energy">   -229.56510897 </i>
    <i name="e_wo_entrp">   -227.41368634 </i>
    <i name="e_0_energy">   -228.48939766 </i>
   </energy>
  </scstep>
  <scstep>
   <time name="diag">   24.50   24.50</time>
   <time name="diis">   23.93   24.71</time>
   <time name="orth">    3.50    3.53</time>
   <time name="total">   55.06   55.89</time>
   <energy>
    <i name="e_fr_energy">   -229.56511371 </i>
    <i name="e_wo_entrp">   -227.41369283 </i>
    <i name="e_0_energy">   -228.48940327 </i>
   </energy>
  </scstep>
  <scstep>
   <time name="diag">   12.96   12.96</time>
   <time name="diis">   24.12   24.47</time>
   <time name="orth">    3.33    3.42</time>
   <time name="total">   42.43   42.94</time>
   <energy>
    <i name="e_fr_energy">   -229.56511624 </i>
    <i name="e_wo_entrp">   -227.41369564 </i>
    <i name="e_0_energy">   -228.48940594 </i>
   </energy>
  </scstep>
  <scstep>
   <time name="diag">   13.59   13.59</time>
   <time name="diis">   23.96   24.26</time>
   <time name="orth">    3.65    3.67</time>
   <time name="total">   43.41   43.88</time>
   <energy>
    <i name="e_fr_energy">   -229.56511783 </i>
    <i name="e_wo_entrp">   -227.41369465 </i>
    <i name="e_0_energy">   -228.48940624 </i>
   </energy>
  </scstep>
  <scstep>
   <time name="diag">   13.48   13.49</time>
   <time name="diis">   23.14   23.45</time>
   <time name="orth">    6.10    6.09</time>
   <time name="total">   42.79   43.13</time>
   <energy>
    <i name="alphaZ">    942.28241388 </i>
    <i name="ewald">  91938.07308661 </i>
    <i name="hartreedc">-119901.55021649 </i>
    <i name="XCdc">    130.16455206 </i>
    <i name="pawpsdc">  32028.42650505 </i>
    <i name="pawaedc"> -31108.50468531 </i>
    <i name="eentropy">     -2.15142387 </i>
    <i name="bandstr">   -688.89873723 </i>
    <i name="atom">  26432.59338697 </i>
    <i name="e_fr_energy">   -229.56511833 </i>
    <i name="e_wo_entrp">   -227.41369446 </i>
    <i name="e_0_energy">   -228.48940640 </i>
   </energy>
  </scstep>
  <structure>
   <crystal>
    <varray name="basis" >
     <v>       8.42164176       0.00000000       0.00000000 </v>
     <v>       4.21082088       7.29335571       0.00000000 </v>
     <v>       0.00000000       0.00000000      21.87624171 </v>
    </varray>
    <i name="volume">   1343.68315334 </i>
    <varray name="rec_basis" >
     <v>       0.11874169      -0.06855555       0.00000000 </v>
     <v>       0.00000000       0.13711110       0.00000000 </v>
     <v>       0.00000000       0.00000000       0.04571169 </v>
    </varray>
   </crystal>
   <varray name="positions" >
    <v>       0.00000000       0.00000000       0.34283768 </v>
    <v>       0.33333333       0.00000000       0.34283768 </v>
    <v>       0.66666667       0.00000000       0.34283768 </v>
    <v>       0.00000000       0.33333333       0.34283768 </v>
    <v>       0.33333333       0.33333333       0.34283768 </v>
    <v>       0.66666667       0.33333333       0.34283768 </v>
    <v>       0.00000000       0.66666667       0.34283768 </v>
    <v>       0.33333333       0.66666667       0.34283768 </v>
    <v>       0.66666667       0.66666667       0.34283768 </v>
    <v>       0.11111111       0.11111111       0.44761256 </v>
    <v>       0.44444444       0.11111111       0.44761256 </v>
    <v>       0.77777778       0.11111111       0.44761256 </v>
    <v>       0.11111111       0.44444444       0.44761256 </v>
    <v>       0.44444444       0.44444444       0.44761256 </v>
    <v>       0.77777778       0.44444444       0.44761256 </v>
    <v>       0.11111111       0.77777778       0.44761256 </v>
    <v>       0.44444444       0.77777778       0.44761256 </v>
    <v>       0.77777778       0.77777778       0.44761256 </v>
    <v>       0.88768084       0.22385623       0.55081838 </v>
    <v>       0.22262956       0.22485013       0.55255386 </v>
    <v>       0.55180616       0.22498746       0.55242940 </v>
    <v>       0.88806903       0.55698725       0.55095161 </v>
    <v>       0.22251655       0.55442027       0.55251907 </v>
    <v>       0.55435930       0.55695372       0.55099908 </v>
    <v>       0.88776732       0.89045419       0.55081174 </v>
    <v>       0.22116943       0.89038639       0.55088887 </v>
    <v>       0.55435864       0.89057582       0.55098278 </v>
    <v>       0.99729754       0.00322725       0.65598427 </v>
    <v>       0.33054062       0.00277141       0.65587566 </v>
    <v>       0.66466105       0.00284145       0.65585100 </v>
    <v>       0.99683920       0.33636318       0.65583676 </v>
    <v>       0.33065584       0.33678897       0.66602411 </v>
    <v>       0.66479558       0.33641287       0.65584196 </v>
    <v>       0.99692766       0.67061464       0.65583456 </v>
    <v>       0.33077588       0.67048493       0.65584563 </v>
    <v>       0.66396198       0.66983993       0.65594963 </v>
    <v>       0.33009546       0.33804416       0.76084461 </v>
    <v>       0.18706160       0.41492418       0.77628546 </v>
    <v>       0.39631787       0.19531640       0.77663768 </v>
    <v>       0.40664852       0.40465297       0.77617188 </v>
   </varray>
  </structure>
  <varray name="forces" >
   <v>       0.00021411      -0.00595392      -0.11996508 </v>
   <v>      -0.01284905      -0.00623328      -0.05260517 </v>
   <v>       0.01562273      -0.00688148      -0.05331106 </v>
   <v>      -0.00577052      -0.02048057      -0.05419943 </v>
   <v>       0.00079332      -0.00736457      -0.05706056 </v>
   <v>       0.00800512      -0.02073052      -0.05378233 </v>
   <v>       0.00859347       0.00479118      -0.05470603 </v>
   <v>      -0.00688565       0.00405017      -0.05291951 </v>
   <v>       0.00151474      -0.00803010      -0.04890028 </v>
   <v>      -0.01200917       0.00277004      -0.02768157 </v>
   <v>      -0.00615128       0.06301072       0.17603115 </v>
   <v>       0.00953688       0.00412278      -0.03599828 </v>
   <v>       0.04542998      -0.02089901       0.18800627 </v>
   <v>      -0.04871604      -0.01511379       0.18195534 </v>
   <v>      -0.00260714       0.00177461       0.00475947 </v>
   <v>      -0.00023433       0.02050541      -0.03139934 </v>
   <v>      -0.01336564       0.01505605       0.00890707 </v>
   <v>       0.00620377       0.01485028       0.00397331 </v>
   <v>       0.00673106      -0.00548936       0.00199984 </v>
   <v>      -0.00844086       0.00191209      -0.01168701 </v>
   <v>       0.00788806      -0.00826969       0.00829078 </v>
   <v>       0.00518251       0.00104491       0.01383667 </v>
   <v>      -0.00453340      -0.00290185      -0.00492090 </v>
   <v>      -0.00273283      -0.00054400       0.00170913 </v>
   <v>      -0.00557648       0.00086201       0.00920656 </v>
   <v>       0.00412325       0.00634107      -0.01133961 </v>
   <v>       0.00708337       0.00125731       0.01193008 </v>
   <v>       0.00439232       0.00112409       0.00759252 </v>
   <v>      -0.00044376       0.00814733       0.01237017 </v>
   <v>      -0.00070735       0.00429862       0.00815110 </v>
   <v>       0.00775963      -0.00171838       0.00854174 </v>
   <v>      -0.00436657      -0.00342275       0.00309888 </v>
   <v>      -0.00519628      -0.00255342       0.00913575 </v>
   <v>       0.00165411      -0.00770664       0.00306807 </v>
   <v>      -0.01323282       0.00165129       0.01335708 </v>
   <v>       0.01360626       0.00592975       0.00617125 </v>
   <v>      -0.00172452      -0.01076928      -0.00957808 </v>
   <v>       0.00340383      -0.00485212      -0.00019506 </v>
   <v>       0.00224062       0.00407240      -0.00723805 </v>
   <v>      -0.00443544      -0.00765741       0.00539512 </v>
  </varray>
  <varray name="stress" >
   <v>     -43.49879358       0.05726679       0.10057618 </v>
   <v>       0.05726682     -43.26336630      -0.31679259 </v>
   <v>       0.10057634      -0.31679254       0.13099580 </v>
  </varray>
  <energy>
   <i name="e_fr_energy">   -229.56511833 </i>
   <i name="e_wo_entrp">   -228.48940640 </i>
   <i name="e_0_energy">     -2.15142387 </i>
  </energy>
  <time name="totalsc"> 2789.63 2814.34</time>
  <eigenvalues>
   <array>
    <dimension dim="1">band</dimension>
    <dimension dim="2">kpoint</dimension>
    <dimension dim="3">spin</dimension>
    <field>eigene</field>
    <field>occ</field>
    <set>
     <set comment="spin 1">
      <set comment="kpoint 1">
       <r>  -10.5953    1.0000 </r>
       <r>   -7.9538    1.0000 </r>
       <r>   -6.6263    1.0000 </r>
       <r>   -5.6675    1.0000 </r>
       <r>   -5.5500    1.0000 </r>
       <r>   -5.5421    1.0000 </r>
       <r>   -5.5081    1.0000 </r>
       <r>   -5.4390    1.0000 </r>
       <r>   -5.3922    1.0000 </r>
       <r>   -5.3831    1.0000 </r>
       <r>   -5.3535    1.0000 </r>
       <r>   -4.9154    1.0000 </r>
       <r>   -4.9046    1.0000 </r>
       <r>   -4.8834    1.0000 </r>
       <r>   -4.8800    1.0000 </r>
       <r>   -4.8704    1.0000 </r>
       <r>   -4.8640    1.0000 </r>
       <r>   -4.4146    1.0000 </r>
       <r>   -4.3898    1.0000 </r>
       <r>   -4.3882    1.0000 </r>
       <r>   -4.3618    1.0000 </r>
       <r>   -4.3580    1.0000 </r>
       <r>   -4.3501    1.0000 </r>
       <r>   -4.2747    1.0000 </r>
       <r>   -4.2136    1.0000 </r>
       <r>   -4.2130    1.0000 </r>
       <r>   -4.1014    1.0000 </r>
       <r>   -4.0952    1.0000 </r>
       <r>   -4.0563    1.0000 </r>
       <r>   -4.0187    1.0000 </r>
       <r>   -4.0117    1.0000 </r>
       <r>   -4.0020    1.0000 </r>
       <r>   -3.9655    1.0000 </r>
       <r>   -3.9529    1.0000 </r>
       <r>   -3.9389    1.0000 </r>
       <r>   -3.9359    1.0000 </r>
       <r>   -3.8707    1.0000 </r>
       <r>   -3.8673    1.0000 </r>
       <r>   -3.8355    1.0000 </r>
       <r>   -3.8083    1.0000 </r>
       <r>   -3.7868    1.0000 </r>
       <r>   -3.7616    1.0000 </r>
       <r>   -3.7224    1.0000 </r>
       <r>   -3.3165    1.0000 </r>
       <r>   -3.3055    1.0000 </r>
       <r>   -3.2992    1.0000 </r>
       <r>   -3.2716    1.0000 </r>
       <r>   -3.2650    1.0000 </r>
       <r>   -3.2301    1.0000 </r>
       <r>   -3.2024    1.0000 </r>
       <r>   -3.1615    1.0000 </r>
       <r>   -3.0966    1.0000 </r>
       <r>   -3.0778    1.0000 </r>
       <r>   -3.0565    1.0000 </r>
       <r>   -3.0313    1.0000 </r>
       <r>   -2.9854    1.0000 </r>
       <r>   -2.9579    1.0000 </r>
       <r>   -2.6059    1.0000 </r>
       <r>   -2.4437    1.0000 </r>
       <r>   -2.4307    1.0000 </r>
       <r>   -2.4201    1.0000 </r>
       <r>   -2.3930    1.0000 </r>
       <r>   -2.3789    1.0000 </r>
       <r>   -2.3504    1.0000 </r>
       <r>   -2.3311    1.0000 </r>
       <r>   -2.3240    1.0000 </r>
       <r>   -2.3139    1.0000 </r>
       <r>   -2.2973    1.0000 </r>
       <r>   -2.2614    1.0000 </r>
       <r>   -2.2556    1.0000 </r>
       <r>   -2.2055    1.0000 </r>
       <r>   -2.1970    1.0000 </r>
       <r>   -2.1900    1.0000 </r>
       <r>   -2.1707    1.0000 </r>
       <r>   -2.1622    1.0000 </r>
       <r>   -2.1000    1.0000 </r>
       <r>   -2.0882    1.0000 </r>
       <r>   -2.0679    1.0000 </r>
       <r>   -2.0631    1.0000 </r>
       <r>   -2.0157    1.0000 </r>
       <r>   -1.9861    1.0000 </r>
       <r>   -1.9479    1.0000 </r>
       <r>   -1.9190    1.0000 </r>
       <r>   -1.9050    1.0000 </r>
       <r>   -1.8862    1.0000 </r>
       <r>   -1.8053    1.0000 </r>
       <r>   -1.7799    1.0000 </r>
       <r>   -1.7667    1.0000 </r>
       <r>   -1.7319    1.0000 </r>
       <r>   -1.7176    1.0000 </r>
       <r>   -1.6895    1.0000 </r>
       <r>   -1.6840    1.0000 </r>
       <r>   -1.6638    1.0000 </r>
       <r>   -1.6589    1.0000 </r>
       <r>   -1.6321    1.0000 </r>
       <r>   -1.6300    1.0000 </r>
       <r>   -1.5748    1.0000 </r>
       <r>   -1.5646    1.0000 </r>
       <r>   -1.5346    1.0000 </r>
       <r>   -1.5312    1.0000 </r>
       <r>   -1.4293    1.0000 </r>
       <r>   -1.4064    1.0000 </r>
       <r>   -1.3887    1.0000 </r>
       <r>   -1.3854    1.0000 </r>
       <r>   -1.3810    1.0000 </r>
       <r>   -1.3438    1.0000 </r>
       <r>   -1.3360    1.0000 </r>
       <r>   -1.3106    1.0000 </r>
       <r>   -1.2401    1.0000 </r>
       <r>   -1.2166    1.0000 </r>
       <r>   -1.0634    1.0000 </r>
       <r>   -1.0140    1.0000 </r>
       <r>   -0.9752    1.0000 </r>
       <r>   -0.9507    1.0000 </r>
       <r>   -0.9055    1.0000 </r>
       <r>   -0.8447    1.0000 </r>
       <r>   -0.8174    1.0000 </r>
       <r>   -0.7832    1.0000 </r>
       <r>   -0.7744    1.0000 </r>
       <r>   -0.7559    1.0000 </r>
       <r>   -0.7391    1.0000 </r>
       <r>   -0.7159    1.0000 </r>
       <r>   -0.7064    1.0000 </r>
       <r>   -0.6199    1.0000 </r>
       <r>   -0.6129    1.0000 </r>
       <r>   -0.5689    1.0000 </r>
       <r>   -0.5453    1.0000 </r>
       <r>   -0.3561    1.0000 </r>
       <r>   -0.3355    1.0000 </r>
       <r>   -0.3331    1.0000 </r>
       <r>   -0.2445    1.0000 </r>
       <r>   -0.2407    1.0000 </r>
       <r>   -0.2356    1.0000 </r>
       <r>   -0.2140    1.0000 </r>
       <r>   -0.2056    1.0000 </r>
       <r>   -0.1941    1.0000 </r>
       <r>   -0.1786    1.0000 </r>
       <r>   -0.0927    1.0000 </r>
       <r>   -0.0846    1.0000 </r>
       <r>   -0.0478    1.0000 </r>
       <r>   -0.0240    1.0000 </r>
       <r>    0.0503    1.0000 </r>
       <r>    0.0755    1.0000 </r>
       <r>    0.1176    1.0000 </r>
       <r>    0.1194    1.0000 </r>
       <r>    0.1319    1.0000 </r>
       <r>    0.1441    1.0000 </r>
       <r>    0.1936    1.0000 </r>
       <r>    0.2391    1.0000 </r>
       <r>    0.3428    0.9999 </r>
       <r>    0.3737    0.9999 </r>
       <r>    0.3774    0.9999 </r>
       <r>    0.3929    0.9999 </r>
       <r>    0.4173    0.9998 </r>
       <r>    0.4261    0.9998 </r>
       <r>    0.4657    0.9998 </r>
       <r>    0.5012    0.9997 </r>
       <r>    0.5253    0.9996 </r>
       <r>    0.5424    0.9995 </r>
       <r>    0.5564    0.9994 </r>
       <r>    0.5704    0.9993 </r>
       <r>    0.5893    0.9992 </r>
       <r>    0.6389    0.9986 </r>
       <r>    0.6487    0.9985 </r>
       <r>    0.6831    0.9979 </r>
       <r>    0.6854    0.9978 </r>
       <r>    0.6988    0.9975 </r>
       <r>    0.7082    0.9972 </r>
       <r>    0.7246    0.9968 </r>
       <r>    0.7298    0.9966 </r>
       <r>    0.7545    0.9956 </r>
       <r>    0.7758    0.9946 </r>
       <r>    0.8072    0.9926 </r>
       <r>    0.8162    0.9919 </r>
       <r>    0.8291    0.9908 </r>
       <r>    0.8308    0.9907 </r>
       <r>    0.8730    0.9858 </r>
       <r>    0.9048    0.9806 </r>
       <r>    0.9257    0.9763 </r>
       <r>    0.9841    0.9582 </r>
       <r>    0.9957    0.9533 </r>
       <r>    0.9972    0.9526 </r>
       <r>    1.0135    0.9447 </r>
       <r>    1.0308    0.9349 </r>
       <r>    1.0326    0.9338 </r>
       <r>    1.0533    0.9199 </r>
       <r>    1.0845    0.8936 </r>
       <r>    1.0859    0.8923 </r>
       <r>    1.1001    0.8778 </r>
       <r>    1.1166    0.8590 </r>
       <r>    1.1268    0.8462 </r>
       <r>    1.1395    0.8289 </r>
       <r>    1.2687    0.5710 </r>
       <r>    1.3364    0.4035 </r>
       <r>    1.3529    0.3645 </r>
       <r>    1.3801    0.3042 </r>
       <r>    1.3875    0.2886 </r>
       <r>    1.4009    0.2620 </r>
       <r>    1.4298    0.2099 </r>
       <r>    1.6864    0.0200 </r>
       <r>    2.0121    0.0008 </r>
       <r>    2.1263    0.0003 </r>
       <r>    2.1432    0.0002 </r>
       <r>    2.3068    0.0000 </r>
       <r>    2.3744    0.0000 </r>
       <r>    2.4359    0.0000 </r>
       <r>    3.5516    0.0000 </r>
       <r>    4.2761    0.0000 </r>
       <r>    4.3802    0.0000 </r>
       <r>    4.5466    0.0000 </r>
       <r>    4.7030    0.0000 </r>
       <r>    4.8224    0.0000 </r>
       <r>    5.4412    0.0000 </r>
       <r>    5.6038    0.0000 </r>
       <r>    5.6270    0.0000 </r>
       <r>    6.0943    0.0000 </r>
       <r>    6.1027    0.0000 </r>
       <r>    6.4272    0.0000 </r>
       <r>    6.4799    0.0000 </r>
       <r>    6.6902    0.0000 </r>
      </set>
      <set comment="kpoint 2">
       <r>  -10.5953    1.0000 </r>
       <r>   -7.9538    1.0000 </r>
       <r>   -6.6263    1.0000 </r>
       <r>   -5.6629    1.0000 </r>
       <r>   -5.5505    1.0000 </r>
       <r>   -5.5467    1.0000 </r>
       <r>   -5.5081    1.0000 </r>
       <r>   -5.4389    1.0000 </r>
       <r>   -5.3929    1.0000 </r>
       <r>   -5.3879    1.0000 </r>
       <r>   -5.3478    1.0000 </r>
       <r>   -4.9177    1.0000 </r>
       <r>   -4.9068    1.0000 </r>
       <r>   -4.8811    1.0000 </r>
       <r>   -4.8790    1.0000 </r>
       <r>   -4.8694    1.0000 </r>
       <r>   -4.8630    1.0000 </r>
       <r>   -4.4155    1.0000 </r>
       <r>   -4.3904    1.0000 </r>
       <r>   -4.3885    1.0000 </r>
       <r>   -4.3603    1.0000 </r>
       <r>   -4.3583    1.0000 </r>
       <r>   -4.3502    1.0000 </r>
       <r>   -4.2736    1.0000 </r>
       <r>   -4.2145    1.0000 </r>
       <r>   -4.2135    1.0000 </r>
       <r>   -4.1013    1.0000 </r>
       <r>   -4.0951    1.0000 </r>
       <r>   -4.0546    1.0000 </r>
       <r>   -4.0141    1.0000 </r>
       <r>   -4.0111    1.0000 </r>
       <r>   -4.0013    1.0000 </r>
       <r>   -3.9683    1.0000 </r>
       <r>   -3.9553    1.0000 </r>
       <r>   -3.9403    1.0000 </r>
       <r>   -3.9388    1.0000 </r>
       <r>   -3.8707    1.0000 </r>
       <r>   -3.8673    1.0000 </r>
       <r>   -3.8355    1.0000 </r>
       <r>   -3.8078    1.0000 </r>
       <r>   -3.7856    1.0000 </r>
       <r>   -3.7612    1.0000 </r>
       <r>   -3.7226    1.0000 </r>
       <r>   -3.3155    1.0000 </r>
       <r>   -3.3040    1.0000 </r>
       <r>   -3.2982    1.0000 </r>
       <r>   -3.2732    1.0000 </r>
       <r>   -3.2680    1.0000 </r>
       <r>   -3.2298    1.0000 </r>
       <r>   -3.2025    1.0000 </r>
       <r>   -3.1623    1.0000 </r>
       <r>   -3.0966    1.0000 </r>
       <r>   -3.0782    1.0000 </r>
       <r>   -3.0553    1.0000 </r>
       <r>   -3.0309    1.0000 </r>
       <r>   -2.9852    1.0000 </r>
       <r>   -2.9579    1.0000 </r>
       <r>   -2.6065    1.0000 </r>
       <r>   -2.4463    1.0000 </r>
       <r>   -2.4335    1.0000 </r>
       <r>   -2.4223    1.0000 </r>
       <r>   -2.3937    1.0000 </r>
       <r>   -2.3785    1.0000 </r>
       <r>   -2.3508    1.0000 </r>
       <r>   -2.3251    1.0000 </r>
       <r>   -2.3238    1.0000 </r>
       <r>   -2.3157    1.0000 </r>
       <r>   -2.2959    1.0000 </r>
       <r>   -2.2591    1.0000 </r>
       <r>   -2.2568    1.0000 </r>
       <r>   -2.2028    1.0000 </r>
       <r>   -2.1986    1.0000 </r>
       <r>   -2.1939    1.0000 </r>
       <r>   -2.1683    1.0000 </r>
       <r>   -2.1617    1.0000 </r>
       <r>   -2.1010    1.0000 </r>
       <r>   -2.0902    1.0000 </r>
       <r>   -2.0701    1.0000 </r>
       <r>   -2.0638    1.0000 </r>
       <r>   -2.0109    1.0000 </r>
       <r>   -1.9741    1.0000 </r>
       <r>   -1.9439    1.0000 </r>
       <r>   -1.9226    1.0000 </r>
       <r>   -1.9135    1.0000 </r>
       <r>   -1.8898    1.0000 </r>
       <r>   -1.7997    1.0000 </r>
       <r>   -1.7831    1.0000 </r>
       <r>   -1.7719    1.0000 </r>
       <r>   -1.7305    1.0000 </r>
       <r>   -1.7216    1.0000 </r>
       <r>   -1.6862    1.0000 </r>
       <r>   -1.6829    1.0000 </r>
       <r>   -1.6610    1.0000 </r>
       <r>   -1.6576    1.0000 </r>
       <r>   -1.6318    1.0000 </r>
       <r>   -1.6295    1.0000 </r>
       <r>   -1.5746    1.0000 </r>
       <r>   -1.5649    1.0000 </r>
       <r>   -1.5347    1.0000 </r>
       <r>   -1.5311    1.0000 </r>
       <r>   -1.4360    1.0000 </r>
       <r>   -1.4029    1.0000 </r>
       <r>   -1.3893    1.0000 </r>
       <r>   -1.3849    1.0000 </r>
       <r>   -1.3815    1.0000 </r>
       <r>   -1.3410    1.0000 </r>
       <r>   -1.3360    1.0000 </r>
       <r>   -1.3093    1.0000 </r>
       <r>   -1.2346    1.0000 </r>
       <r>   -1.2232    1.0000 </r>
       <r>   -1.0648    1.0000 </r>
       <r>   -1.0139    1.0000 </r>
       <r>   -0.9757    1.0000 </r>
       <r>   -0.9510    1.0000 </r>
       <r>   -0.9065    1.0000 </r>
       <r>   -0.8450    1.0000 </r>
       <r>   -0.8178    1.0000 </r>
       <r>   -0.7834    1.0000 </r>
       <r>   -0.7754    1.0000 </r>
       <r>   -0.7553    1.0000 </r>
       <r>   -0.7405    1.0000 </r>
       <r>   -0.7144    1.0000 </r>
       <r>   -0.7046    1.0000 </r>
       <r>   -0.6184    1.0000 </r>
       <r>   -0.6130    1.0000 </r>
       <r>   -0.5678    1.0000 </r>
       <r>   -0.5446    1.0000 </r>
       <r>   -0.3559    1.0000 </r>
       <r>   -0.3343    1.0000 </r>
       <r>   -0.3339    1.0000 </r>
       <r>   -0.2462    1.0000 </r>
       <r>   -0.2380    1.0000 </r>
       <r>   -0.2333    1.0000 </r>
       <r>   -0.2124    1.0000 </r>
       <r>   -0.2084    1.0000 </r>
       <r>   -0.1957    1.0000 </r>
       <r>   -0.1789    1.0000 </r>
       <r>   -0.0911    1.0000 </r>
       <r>   -0.0839    1.0000 </r>
       <r>   -0.0440    1.0000 </r>
       <r>   -0.0225    1.0000 </r>
       <r>    0.0503    1.0000 </r>
       <r>    0.0749    1.0000 </r>
       <r>    0.1171    1.0000 </r>
       <r>    0.1225    1.0000 </r>
       <r>    0.1301    1.0000 </r>
       <r>    0.1414    1.0000 </r>
       <r>    0.1929    1.0000 </r>
       <r>    0.2371    1.0000 </r>
       <r>    0.3401    0.9999 </r>
       <r>    0.3743    0.9999 </r>
       <r>    0.3770    0.9999 </r>
       <r>    0.3911    0.9999 </r>
       <r>    0.4173    0.9998 </r>
       <r>    0.4264    0.9998 </r>
       <r>    0.4661    0.9998 </r>
       <r>    0.5020    0.9996 </r>
       <r>    0.5260    0.9996 </r>
       <r>    0.5423    0.9995 </r>
       <r>    0.5570    0.9994 </r>
       <r>    0.5702    0.9993 </r>
       <r>    0.5906    0.9991 </r>
       <r>    0.6380    0.9986 </r>
       <r>    0.6486    0.9985 </r>
       <r>    0.6852    0.9978 </r>
       <r>    0.6864    0.9978 </r>
       <r>    0.6980    0.9975 </r>
       <r>    0.7088    0.9972 </r>
       <r>    0.7235    0.9968 </r>
       <r>    0.7288    0.9966 </r>
       <r>    0.7538    0.9957 </r>
       <r>    0.7735    0.9947 </r>
       <r>    0.8096    0.9924 </r>
       <r>    0.8162    0.9919 </r>
       <r>    0.8253    0.9912 </r>
       <r>    0.8341    0.9904 </r>
       <r>    0.8723    0.9859 </r>
       <r>    0.9036    0.9809 </r>
       <r>    0.9248    0.9765 </r>
       <r>    0.9819    0.9591 </r>
       <r>    0.9952    0.9535 </r>
       <r>    0.9966    0.9529 </r>
       <r>    1.0152    0.9438 </r>
       <r>    1.0317    0.9344 </r>
       <r>    1.0364    0.9314 </r>
       <r>    1.0542    0.9191 </r>
       <r>    1.0852    0.8929 </r>
       <r>    1.0866    0.8916 </r>
       <r>    1.0998    0.8782 </r>
       <r>    1.1174    0.8580 </r>
       <r>    1.1235    0.8505 </r>
       <r>    1.1479    0.8167 </r>
       <r>    1.2585    0.5959 </r>
       <r>    1.3402    0.3943 </r>
       <r>    1.3508    0.3694 </r>
       <r>    1.3820    0.3002 </r>
       <r>    1.3867    0.2904 </r>
       <r>    1.3981    0.2673 </r>
       <r>    1.4280    0.2129 </r>
       <r>    1.6871    0.0199 </r>
       <r>    2.0160    0.0008 </r>
       <r>    2.1211    0.0003 </r>
       <r>    2.1420    0.0002 </r>
       <r>    2.3072    0.0000 </r>
       <r>    2.3735    0.0000 </r>
       <r>    2.4398    0.0000 </r>
       <r>    3.5521    0.0000 </r>
       <r>    4.2810    0.0000 </r>
       <r>    4.3756    0.0000 </r>
       <r>    4.5434    0.0000 </r>
       <r>    4.7005    0.0000 </r>
       <r>    4.8269    0.0000 </r>
       <r>    5.4416    0.0000 </r>
       <r>    5.6049    0.0000 </r>
       <r>    5.6279    0.0000 </r>
       <r>    6.0906    0.0000 </r>
       <r>    6.0994    0.0000 </r>
       <r>    6.4262    0.0000 </r>
       <r>    6.4972    0.0000 </r>
       <r>    6.6857    0.0000 </r>
      </set>
      <set comment="kpoint 3">
       <r>  -10.5953    1.0000 </r>
       <r>   -7.9538    1.0000 </r>
       <r>   -6.6263    1.0000 </r>
       <r>   -5.6694    1.0000 </r>
       <r>   -5.5479    1.0000 </r>
       <r>   -5.5421    1.0000 </r>
       <r>   -5.5081    1.0000 </r>
       <r>   -5.4390    1.0000 </r>
       <r>   -5.3904    1.0000 </r>
       <r>   -5.3828    1.0000 </r>
       <r>   -5.3558    1.0000 </r>
       <r>   -4.9145    1.0000 </r>
       <r>   -4.9047    1.0000 </r>
       <r>   -4.8832    1.0000 </r>
       <r>   -4.8801    1.0000 </r>
       <r>   -4.8701    1.0000 </r>
       <r>   -4.8654    1.0000 </r>
       <r>   -4.4148    1.0000 </r>
       <r>   -4.3896    1.0000 </r>
       <r>   -4.3873    1.0000 </r>
       <r>   -4.3629    1.0000 </r>
       <r>   -4.3575    1.0000 </r>
       <r>   -4.3500    1.0000 </r>
       <r>   -4.2746    1.0000 </r>
       <r>   -4.2141    1.0000 </r>
       <r>   -4.2129    1.0000 </r>
       <r>   -4.1018    1.0000 </r>
       <r>   -4.0955    1.0000 </r>
       <r>   -4.0562    1.0000 </r>
       <r>   -4.0191    1.0000 </r>
       <r>   -4.0131    1.0000 </r>
       <r>   -4.0042    1.0000 </r>
       <r>   -3.9632    1.0000 </r>
       <r>   -3.9522    1.0000 </r>
       <r>   -3.9380    1.0000 </r>
       <r>   -3.9344    1.0000 </r>
       <r>   -3.8709    1.0000 </r>
       <r>   -3.8677    1.0000 </r>
       <r>   -3.8354    1.0000 </r>
       <r>   -3.8083    1.0000 </r>
       <r>   -3.7865    1.0000 </r>
       <r>   -3.7616    1.0000 </r>
       <r>   -3.7231    1.0000 </r>
       <r>   -3.3166    1.0000 </r>
       <r>   -3.3060    1.0000 </r>
       <r>   -3.2999    1.0000 </r>
       <r>   -3.2704    1.0000 </r>
       <r>   -3.2647    1.0000 </r>
       <r>   -3.2297    1.0000 </r>
       <r>   -3.2028    1.0000 </r>
       <r>   -3.1611    1.0000 </r>
       <r>   -3.0968    1.0000 </r>
       <r>   -3.0775    1.0000 </r>
       <r>   -3.0567    1.0000 </r>
       <r>   -3.0317    1.0000 </r>
       <r>   -2.9851    1.0000 </r>
       <r>   -2.9580    1.0000 </r>
       <r>   -2.6055    1.0000 </r>
       <r>   -2.4428    1.0000 </r>
       <r>   -2.4282    1.0000 </r>
       <r>   -2.4202    1.0000 </r>
       <r>   -2.3944    1.0000 </r>
       <r>   -2.3777    1.0000 </r>
       <r>   -2.3518    1.0000 </r>
       <r>   -2.3325    1.0000 </r>
       <r>   -2.3249    1.0000 </r>
       <r>   -2.3123    1.0000 </r>
       <r>   -2.2966    1.0000 </r>
       <r>   -2.2616    1.0000 </r>
       <r>   -2.2564    1.0000 </r>
       <r>   -2.2038    1.0000 </r>
       <r>   -2.1977    1.0000 </r>
       <r>   -2.1893    1.0000 </r>
       <r>   -2.1711    1.0000 </r>
       <r>   -2.1623    1.0000 </r>
       <r>   -2.0998    1.0000 </r>
       <r>   -2.0867    1.0000 </r>
       <r>   -2.0679    1.0000 </r>
       <r>   -2.0616    1.0000 </r>
       <r>   -2.0177    1.0000 </r>
       <r>   -1.9924    1.0000 </r>
       <r>   -1.9497    1.0000 </r>
       <r>   -1.9153    1.0000 </r>
       <r>   -1.9066    1.0000 </r>
       <r>   -1.8812    1.0000 </r>
       <r>   -1.8107    1.0000 </r>
       <r>   -1.7750    1.0000 </r>
       <r>   -1.7650    1.0000 </r>
       <r>   -1.7303    1.0000 </r>
       <r>   -1.7184    1.0000 </r>
       <r>   -1.6932    1.0000 </r>
       <r>   -1.6831    1.0000 </r>
       <r>   -1.6640    1.0000 </r>
       <r>   -1.6607    1.0000 </r>
       <r>   -1.6321    1.0000 </r>
       <r>   -1.6305    1.0000 </r>
       <r>   -1.5749    1.0000 </r>
       <r>   -1.5644    1.0000 </r>
       <r>   -1.5341    1.0000 </r>
       <r>   -1.5313    1.0000 </r>
       <r>   -1.4260    1.0000 </r>
       <r>   -1.4069    1.0000 </r>
       <r>   -1.3883    1.0000 </r>
       <r>   -1.3853    1.0000 </r>
       <r>   -1.3809    1.0000 </r>
       <r>   -1.3440    1.0000 </r>
       <r>   -1.3389    1.0000 </r>
       <r>   -1.3116    1.0000 </r>
       <r>   -1.2424    1.0000 </r>
       <r>   -1.2132    1.0000 </r>
       <r>   -1.0626    1.0000 </r>
       <r>   -1.0138    1.0000 </r>
       <r>   -0.9745    1.0000 </r>
       <r>   -0.9507    1.0000 </r>
       <r>   -0.9049    1.0000 </r>
       <r>   -0.8458    1.0000 </r>
       <r>   -0.8171    1.0000 </r>
       <r>   -0.7828    1.0000 </r>
       <r>   -0.7745    1.0000 </r>
       <r>   -0.7569    1.0000 </r>
       <r>   -0.7380    1.0000 </r>
       <r>   -0.7164    1.0000 </r>
       <r>   -0.7072    1.0000 </r>
       <r>   -0.6195    1.0000 </r>
       <r>   -0.6137    1.0000 </r>
       <r>   -0.5691    1.0000 </r>
       <r>   -0.5462    1.0000 </r>
       <r>   -0.3558    1.0000 </r>
       <r>   -0.3352    1.0000 </r>
       <r>   -0.3326    1.0000 </r>
       <r>   -0.2427    1.0000 </r>
       <r>   -0.2415    1.0000 </r>
       <r>   -0.2381    1.0000 </r>
       <r>   -0.2143    1.0000 </r>
       <r>   -0.2046    1.0000 </r>
       <r>   -0.1937    1.0000 </r>
       <r>   -0.1787    1.0000 </r>
       <r>   -0.0938    1.0000 </r>
       <r>   -0.0848    1.0000 </r>
       <r>   -0.0497    1.0000 </r>
       <r>   -0.0251    1.0000 </r>
       <r>    0.0510    1.0000 </r>
       <r>    0.0757    1.0000 </r>
       <r>    0.1155    1.0000 </r>
       <r>    0.1186    1.0000 </r>
       <r>    0.1326    1.0000 </r>
       <r>    0.1470    1.0000 </r>
       <r>    0.1940    1.0000 </r>
       <r>    0.2397    1.0000 </r>
       <r>    0.3437    0.9999 </r>
       <r>    0.3741    0.9999 </r>
       <r>    0.3772    0.9999 </r>
       <r>    0.3940    0.9999 </r>
       <r>    0.4174    0.9998 </r>
       <r>    0.4253    0.9998 </r>
       <r>    0.4651    0.9998 </r>
       <r>    0.5008    0.9997 </r>
       <r>    0.5249    0.9996 </r>
       <r>    0.5424    0.9995 </r>
       <r>    0.5561    0.9994 </r>
       <r>    0.5707    0.9993 </r>
       <r>    0.5890    0.9992 </r>
       <r>    0.6391    0.9986 </r>
       <r>    0.6490    0.9985 </r>
       <r>    0.6829    0.9979 </r>
       <r>    0.6849    0.9978 </r>
       <r>    0.6989    0.9975 </r>
       <r>    0.7082    0.9972 </r>
       <r>    0.7253    0.9967 </r>
       <r>    0.7299    0.9966 </r>
       <r>    0.7554    0.9956 </r>
       <r>    0.7766    0.9946 </r>
       <r>    0.8062    0.9927 </r>
       <r>    0.8167    0.9919 </r>
       <r>    0.8294    0.9908 </r>
       <r>    0.8304    0.9907 </r>
       <r>    0.8731    0.9858 </r>
       <r>    0.9049    0.9806 </r>
       <r>    0.9264    0.9761 </r>
       <r>    0.9848    0.9579 </r>
       <r>    0.9956    0.9533 </r>
       <r>    0.9976    0.9524 </r>
       <r>    1.0132    0.9449 </r>
       <r>    1.0290    0.9360 </r>
       <r>    1.0327    0.9337 </r>
       <r>    1.0531    0.9200 </r>
       <r>    1.0838    0.8942 </r>
       <r>    1.0856    0.8926 </r>
       <r>    1.1005    0.8775 </r>
       <r>    1.1160    0.8598 </r>
       <r>    1.1272    0.8456 </r>
       <r>    1.1365    0.8331 </r>
       <r>    1.2731    0.5602 </r>
       <r>    1.3349    0.4071 </r>
       <r>    1.3536    0.3628 </r>
       <r>    1.3798    0.3047 </r>
       <r>    1.3878    0.2881 </r>
       <r>    1.4017    0.2605 </r>
       <r>    1.4309    0.2081 </r>
       <r>    1.6862    0.0200 </r>
       <r>    2.0104    0.0008 </r>
       <r>    2.1285    0.0002 </r>
       <r>    2.1437    0.0002 </r>
       <r>    2.3068    0.0000 </r>
       <r>    2.3740    0.0000 </r>
       <r>    2.4347    0.0000 </r>
       <r>    3.5514    0.0000 </r>
       <r>    4.2731    0.0000 </r>
       <r>    4.3830    0.0000 </r>
       <r>    4.5487    0.0000 </r>
       <r>    4.7050    0.0000 </r>
       <r>    4.8193    0.0000 </r>
       <r>    5.4408    0.0000 </r>
       <r>    5.6032    0.0000 </r>
       <r>    5.6267    0.0000 </r>
       <r>    6.0962    0.0000 </r>
       <r>    6.1042    0.0000 </r>
       <r>    6.4300    0.0000 </r>
       <r>    6.4724    0.0000 </r>
       <r>    6.6817    0.0000 </r>
      </set>
      <set comment="kpoint 4">
       <r>  -10.5949    1.0000 </r>
       <r>   -7.7975    1.0000 </r>
       <r>   -6.4732    1.0000 </r>
       <r>   -6.0337    1.0000 </r>
       <r>   -5.8391    1.0000 </r>
       <r>   -5.3970    1.0000 </r>
       <r>   -5.3516    1.0000 </r>
       <r>   -5.2942    1.0000 </r>
       <r>   -5.2516    1.0000 </r>
       <r>   -5.2341    1.0000 </r>
       <r>   -5.2104    1.0000 </r>
       <r>   -5.0374    1.0000 </r>
       <r>   -4.9517    1.0000 </r>
       <r>   -4.9229    1.0000 </r>
       <r>   -4.8750    1.0000 </r>
       <r>   -4.7474    1.0000 </r>
       <r>   -4.7351    1.0000 </r>
       <r>   -4.4832    1.0000 </r>
       <r>   -4.4192    1.0000 </r>
       <r>   -4.3349    1.0000 </r>
       <r>   -4.3218    1.0000 </r>
       <r>   -4.2855    1.0000 </r>
       <r>   -4.2776    1.0000 </r>
       <r>   -4.2639    1.0000 </r>
       <r>   -4.2396    1.0000 </r>
       <r>   -4.2304    1.0000 </r>
       <r>   -4.1542    1.0000 </r>
       <r>   -4.1378    1.0000 </r>
       <r>   -4.1209    1.0000 </r>
       <r>   -4.1035    1.0000 </r>
       <r>   -4.0635    1.0000 </r>
       <r>   -4.0235    1.0000 </r>
       <r>   -4.0073    1.0000 </r>
       <r>   -3.9739    1.0000 </r>
       <r>   -3.9314    1.0000 </r>
       <r>   -3.8617    1.0000 </r>
       <r>   -3.8451    1.0000 </r>
       <r>   -3.7644    1.0000 </r>
       <r>   -3.7319    1.0000 </r>
       <r>   -3.6954    1.0000 </r>
       <r>   -3.6796    1.0000 </r>
       <r>   -3.6452    1.0000 </r>
       <r>   -3.6168    1.0000 </r>
       <r>   -3.4431    1.0000 </r>
       <r>   -3.3868    1.0000 </r>
       <r>   -3.3508    1.0000 </r>
       <r>   -3.3444    1.0000 </r>
       <r>   -3.3076    1.0000 </r>
       <r>   -3.2665    1.0000 </r>
       <r>   -3.2074    1.0000 </r>
       <r>   -3.1369    1.0000 </r>
       <r>   -3.0723    1.0000 </r>
       <r>   -3.0233    1.0000 </r>
       <r>   -3.0131    1.0000 </r>
       <r>   -2.9832    1.0000 </r>
       <r>   -2.9586    1.0000 </r>
       <r>   -2.9437    1.0000 </r>
       <r>   -2.7971    1.0000 </r>
       <r>   -2.7472    1.0000 </r>
       <r>   -2.6187    1.0000 </r>
       <r>   -2.5304    1.0000 </r>
       <r>   -2.5143    1.0000 </r>
       <r>   -2.4934    1.0000 </r>
       <r>   -2.4676    1.0000 </r>
       <r>   -2.4514    1.0000 </r>
       <r>   -2.3992    1.0000 </r>
       <r>   -2.3849    1.0000 </r>
       <r>   -2.3710    1.0000 </r>
       <r>   -2.3175    1.0000 </r>
       <r>   -2.2913    1.0000 </r>
       <r>   -2.2808    1.0000 </r>
       <r>   -2.2525    1.0000 </r>
       <r>   -2.2287    1.0000 </r>
       <r>   -2.2015    1.0000 </r>
       <r>   -2.1784    1.0000 </r>
       <r>   -2.1584    1.0000 </r>
       <r>   -2.1045    1.0000 </r>
       <r>   -2.0470    1.0000 </r>
       <r>   -2.0175    1.0000 </r>
       <r>   -1.9871    1.0000 </r>
       <r>   -1.9376    1.0000 </r>
       <r>   -1.9298    1.0000 </r>
       <r>   -1.9216    1.0000 </r>
       <r>   -1.8978    1.0000 </r>
       <r>   -1.8791    1.0000 </r>
       <r>   -1.8512    1.0000 </r>
       <r>   -1.8139    1.0000 </r>
       <r>   -1.7857    1.0000 </r>
       <r>   -1.7703    1.0000 </r>
       <r>   -1.7339    1.0000 </r>
       <r>   -1.7196    1.0000 </r>
       <r>   -1.7144    1.0000 </r>
       <r>   -1.6837    1.0000 </r>
       <r>   -1.6692    1.0000 </r>
       <r>   -1.6523    1.0000 </r>
       <r>   -1.6472    1.0000 </r>
       <r>   -1.6153    1.0000 </r>
       <r>   -1.5853    1.0000 </r>
       <r>   -1.5421    1.0000 </r>
       <r>   -1.5204    1.0000 </r>
       <r>   -1.4961    1.0000 </r>
       <r>   -1.4699    1.0000 </r>
       <r>   -1.4389    1.0000 </r>
       <r>   -1.4186    1.0000 </r>
       <r>   -1.4045    1.0000 </r>
       <r>   -1.3785    1.0000 </r>
       <r>   -1.3479    1.0000 </r>
       <r>   -1.3096    1.0000 </r>
       <r>   -1.2917    1.0000 </r>
       <r>   -1.2683    1.0000 </r>
       <r>   -1.2374    1.0000 </r>
       <r>   -1.1827    1.0000 </r>
       <r>   -1.1557    1.0000 </r>
       <r>   -1.0896    1.0000 </r>
       <r>   -1.0628    1.0000 </r>
       <r>   -1.0243    1.0000 </r>
       <r>   -0.9577    1.0000 </r>
       <r>   -0.9140    1.0000 </r>
       <r>   -0.8445    1.0000 </r>
       <r>   -0.8047    1.0000 </r>
       <r>   -0.7698    1.0000 </r>
       <r>   -0.7431    1.0000 </r>
       <r>   -0.7282    1.0000 </r>
       <r>   -0.7050    1.0000 </r>
       <r>   -0.6734    1.0000 </r>
       <r>   -0.6433    1.0000 </r>
       <r>   -0.5937    1.0000 </r>
       <r>   -0.5322    1.0000 </r>
       <r>   -0.4667    1.0000 </r>
       <r>   -0.3988    1.0000 </r>
       <r>   -0.3262    1.0000 </r>
       <r>   -0.3144    1.0000 </r>
       <r>   -0.2965    1.0000 </r>
       <r>   -0.2445    1.0000 </r>
       <r>   -0.2316    1.0000 </r>
       <r>   -0.1980    1.0000 </r>
       <r>   -0.1855    1.0000 </r>
       <r>   -0.1502    1.0000 </r>
       <r>   -0.1120    1.0000 </r>
       <r>   -0.0220    1.0000 </r>
       <r>    0.0134    1.0000 </r>
       <r>    0.0304    1.0000 </r>
       <r>    0.0536    1.0000 </r>
       <r>    0.0910    1.0000 </r>
       <r>    0.1107    1.0000 </r>
       <r>    0.1293    1.0000 </r>
       <r>    0.1472    1.0000 </r>
       <r>    0.1693    1.0000 </r>
       <r>    0.1920    1.0000 </r>
       <r>    0.2048    1.0000 </r>
       <r>    0.2462    1.0000 </r>
       <r>    0.2728    1.0000 </r>
       <r>    0.2948    1.0000 </r>
       <r>    0.3054    1.0000 </r>
       <r>    0.3576    0.9999 </r>
       <r>    0.3749    0.9999 </r>
       <r>    0.4041    0.9999 </r>
       <r>    0.4419    0.9998 </r>
       <r>    0.5028    0.9996 </r>
       <r>    0.5365    0.9995 </r>
       <r>    0.5677    0.9993 </r>
       <r>    0.6130    0.9989 </r>
       <r>    0.6388    0.9986 </r>
       <r>    0.6948    0.9976 </r>
       <r>    0.7285    0.9966 </r>
       <r>    0.7367    0.9963 </r>
       <r>    0.7753    0.9946 </r>
       <r>    0.7996    0.9932 </r>
       <r>    0.8352    0.9903 </r>
       <r>    0.8654    0.9869 </r>
       <r>    0.8912    0.9831 </r>
       <r>    0.9300    0.9752 </r>
       <r>    0.9504    0.9698 </r>
       <r>    0.9923    0.9548 </r>
       <r>    1.0131    0.9449 </r>
       <r>    1.0261    0.9377 </r>
       <r>    1.0501    0.9221 </r>
       <r>    1.0677    0.9085 </r>
       <r>    1.0912    0.8870 </r>
       <r>    1.1163    0.8594 </r>
       <r>    1.1261    0.8471 </r>
       <r>    1.1608    0.7966 </r>
       <r>    1.2022    0.7214 </r>
       <r>    1.2317    0.6583 </r>
       <r>    1.2457    0.6262 </r>
       <r>    1.2696    0.5689 </r>
       <r>    1.2808    0.5412 </r>
       <r>    1.3090    0.4708 </r>
       <r>    1.3306    0.4174 </r>
       <r>    1.3626    0.3424 </r>
       <r>    1.3917    0.2801 </r>
       <r>    1.4386    0.1958 </r>
       <r>    1.4952    0.1214 </r>
       <r>    1.4972    0.1193 </r>
       <r>    1.5261    0.0921 </r>
       <r>    1.5483    0.0751 </r>
       <r>    1.6123    0.0411 </r>
       <r>    1.6981    0.0179 </r>
       <r>    1.8186    0.0054 </r>
       <r>    1.8487    0.0040 </r>
       <r>    1.8717    0.0032 </r>
       <r>    2.2374    0.0001 </r>
       <r>    2.5252    0.0000 </r>
       <r>    2.7404    0.0000 </r>
       <r>    2.9404    0.0000 </r>
       <r>    2.9849    0.0000 </r>
       <r>    3.5100    0.0000 </r>
       <r>    3.9112    0.0000 </r>
       <r>    4.2825    0.0000 </r>
       <r>    4.6517    0.0000 </r>
       <r>    4.7058    0.0000 </r>
       <r>    5.0486    0.0000 </r>
       <r>    5.1848    0.0000 </r>
       <r>    5.3535    0.0000 </r>
       <r>    5.5527    0.0000 </r>
       <r>    5.6887    0.0000 </r>
       <r>    5.7611    0.0000 </r>
       <r>    6.2317    0.0000 </r>
       <r>    6.4741    0.0000 </r>
       <r>    6.6565    0.0000 </r>
      </set>
      <set comment="kpoint 5">
       <r>  -10.5949    1.0000 </r>
       <r>   -7.7974    1.0000 </r>
       <r>   -6.4731    1.0000 </r>
       <r>   -6.0326    1.0000 </r>
       <r>   -5.8358    1.0000 </r>
       <r>   -5.4039    1.0000 </r>
       <r>   -5.3513    1.0000 </r>
       <r>   -5.2937    1.0000 </r>
       <r>   -5.2506    1.0000 </r>
       <r>   -5.2401    1.0000 </r>
       <r>   -5.2047    1.0000 </r>
       <r>   -5.0378    1.0000 </r>
       <r>   -4.9517    1.0000 </r>
       <r>   -4.9251    1.0000 </r>
       <r>   -4.8769    1.0000 </r>
       <r>   -4.7423    1.0000 </r>
       <r>   -4.7301    1.0000 </r>
       <r>   -4.4850    1.0000 </r>
       <r>   -4.4225    1.0000 </r>
       <r>   -4.3345    1.0000 </r>
[...]
   <v name="MAGDIPOLOUT">      0.00000000      0.00000000      0.00000000</v>
  </separator>
  <dos>
   <i name="efermi">      1.29730504 </i>
   <total>
    <array>
     <dimension dim="1">gridpoints</dimension>
     <dimension dim="2">spin</dimension>
     <field>energy</field>
     <field>total</field>
     <field>integrated</field>
     <set>
      <set comment="spin 1">
       <r>   -11.5953     0.0000     0.0000 </r>
       <r>   -11.5302     0.0000     0.0000 </r>
       <r>   -11.4652     0.0000     0.0000 </r>
       <r>   -11.4001     0.0098     0.0006 </r>
       <r>   -11.3351     0.0089     0.0012 </r>
       <r>   -11.2700     0.0171     0.0023 </r>
       <r>   -11.2050     0.0327     0.0045 </r>
       <r>   -11.1399     0.0625     0.0085 </r>
       <r>   -11.0749     0.1191     0.0163 </r>
       <r>   -11.0098     0.2257     0.0310 </r>
       <r>   -10.9448     0.4234     0.0585 </r>
       <r>   -10.8797     0.7791     0.1092 </r>
       <r>   -10.8147     1.3849     0.1993 </r>
       <r>   -10.7497     2.3162     0.3499 </r>
       <r>   -10.6846     3.5054     0.5779 </r>
       <r>   -10.6196     4.5773     0.8757 </r>
       <r>   -10.5545     4.9495     1.1976 </r>
       <r>   -10.4895     4.3708     1.4819 </r>
       <r>   -10.4244     3.2211     1.6914 </r>
       <r>   -10.3594     2.0712     1.8262 </r>
       <r>   -10.2943     1.2174     1.9054 </r>
       <r>   -10.2293     0.6782     1.9495 </r>
       <r>   -10.1642     0.3665     1.9733 </r>
       <r>   -10.0992     0.1948     1.9860 </r>
       <r>   -10.0341     0.1027     1.9927 </r>
       <r>    -9.9691     0.0538     1.9962 </r>
       <r>    -9.9040     0.0282     1.9980 </r>
       <r>    -9.8390     0.0147     1.9990 </r>
       <r>    -9.7740     0.0000     2.0000 </r>
       <r>    -9.7089     0.0000     2.0000 </r>
       <r>    -9.6439     0.0000     2.0000 </r>
       <r>    -9.5788     0.0000     2.0000 </r>
       <r>    -9.5138     0.0000     2.0000 </r>
       <r>    -9.4487     0.0000     2.0000 </r>
       <r>    -9.3837     0.0000     2.0000 </r>
       <r>    -9.3186     0.0000     2.0000 </r>
       <r>    -9.2536     0.0000     2.0000 </r>
       <r>    -9.1885     0.0000     2.0000 </r>
       <r>    -9.1235     0.0000     2.0000 </r>
       <r>    -9.0584     0.0000     2.0000 </r>
       <r>    -8.9934     0.0000     2.0000 </r>
       <r>    -8.9283     0.0000     2.0000 </r>
       <r>    -8.8633     0.0000     2.0000 </r>
       <r>    -8.7983     0.0004     2.0000 </r>
       <r>    -8.7332     0.0008     2.0001 </r>
       <r>    -8.6682     0.0010     2.0001 </r>
       <r>    -8.6031     0.0034     2.0004 </r>
       <r>    -8.5381     0.0050     2.0007 </r>
       <r>    -8.4730     0.0105     2.0014 </r>
       <r>    -8.4080     0.0192     2.0026 </r>
       <r>    -8.3429     0.0371     2.0050 </r>
       <r>    -8.2779     0.0700     2.0096 </r>
       <r>    -8.2128     0.1292     2.0180 </r>
       <r>    -8.1478     0.2330     2.0331 </r>
       <r>    -8.0827     0.4011     2.0592 </r>
       <r>    -8.0177     0.6453     2.1012 </r>
       <r>    -7.9526     0.9455     2.1627 </r>
       <r>    -7.8876     1.2568     2.2445 </r>
       <r>    -7.8226     1.5241     2.3436 </r>
       <r>    -7.7575     1.7161     2.4552 </r>
       <r>    -7.6925     1.8277     2.5741 </r>
       <r>    -7.6274     1.8947     2.6974 </r>
       <r>    -7.5624     1.9588     2.8248 </r>
       <r>    -7.4973     2.0375     2.9573 </r>
       <r>    -7.4323     2.0941     3.0935 </r>
       <r>    -7.3672     2.0947     3.2298 </r>
       <r>    -7.3022     2.0629     3.3640 </r>
       <r>    -7.2371     2.0494     3.4973 </r>
       <r>    -7.1721     2.0860     3.6329 </r>
       <r>    -7.1070     2.1776     3.7746 </r>
       <r>    -7.0420     2.2990     3.9242 </r>
       <r>    -6.9769     2.3892     4.0797 </r>
       <r>    -6.9119     2.4281     4.2377 </r>
       <r>    -6.8469     2.4633     4.3980 </r>
       <r>    -6.7818     2.5581     4.5644 </r>
       <r>    -6.7168     2.7685     4.7445 </r>
       <r>    -6.6517     3.1234     4.9478 </r>
       <r>    -6.5867     3.5972     5.1818 </r>
       <r>    -6.5216     4.0711     5.4467 </r>
       <r>    -6.4566     4.4179     5.7341 </r>
       <r>    -6.3915     4.5843     6.0324 </r>
       <r>    -6.3265     4.6366     6.3340 </r>
       <r>    -6.2614     4.6810     6.6387 </r>
       <r>    -6.1964     4.7677     6.9489 </r>
       <r>    -6.1313     4.8866     7.2668 </r>
       <r>    -6.0663     5.0620     7.5961 </r>
       <r>    -6.0012     5.3347     7.9432 </r>
       <r>    -5.9362     5.6867     8.3132 </r>
       <r>    -5.8712     6.0271     8.7052 </r>
       <r>    -5.8061     6.3175     9.1163 </r>
       <r>    -5.7411     6.6367     9.5481 </r>
       <r>    -5.6760     7.0842    10.0091 </r>
       <r>    -5.6110     7.7799    10.5154 </r>
       <r>    -5.5459     8.8801    11.0930 </r>
       <r>    -5.4809    10.5407    11.7788 </r>
       <r>    -5.4158    12.7721    12.6097 </r>
       <r>    -5.3508    15.3319    13.6072 </r>
       <r>    -5.2857    17.8507    14.7684 </r>
       <r>    -5.2207    20.1185    16.0772 </r>
       <r>    -5.1556    22.1764    17.5198 </r>
       <r>    -5.0906    24.1947    19.0940 </r>
       <r>    -5.0255    26.2854    20.8039 </r>
       <r>    -4.9605    28.2842    22.6439 </r>
       <r>    -4.8955    29.8449    24.5853 </r>
       <r>    -4.8304    30.7286    26.5844 </r>
       <r>    -4.7654    31.1780    28.6126 </r>
       <r>    -4.7003    31.9092    30.6884 </r>
       <r>    -4.6353    33.5047    32.8679 </r>
       <r>    -4.5702    36.0459    35.2132 </r>
       <r>    -4.5052    39.2803    37.7687 </r>
       <r>    -4.4401    42.9143    40.5607 </r>
       <r>    -4.3751    46.5747    43.5910 </r>
       <r>    -4.3100    49.7065    46.8247 </r>
       <r>    -4.2450    51.8062    50.1955 </r>
       <r>    -4.1799    52.8535    53.6341 </r>
       <r>    -4.1149    53.3119    57.1028 </r>
       <r>    -4.0498    53.6796    60.5958 </r>
       <r>    -3.9848    54.0090    64.1100 </r>
       <r>    -3.9198    53.6556    67.6007 </r>
       <r>    -3.8547    51.8188    70.9723 </r>
       <r>    -3.7897    48.3321    74.1171 </r>
       <r>    -3.7246    43.9075    76.9744 </r>
       <r>    -3.6596    39.7311    79.5599 </r>
       <r>    -3.5945    36.9486    81.9646 </r>
       <r>    -3.5295    36.3525    84.3314 </r>
       <r>    -3.4644    38.0515    86.8082 </r>
       <r>    -3.3994    41.2049    89.4900 </r>
       <r>    -3.3343    44.3794    92.3786 </r>
       <r>    -3.2693    46.4845    95.4035 </r>
       <r>    -3.2042    47.4019    98.4885 </r>
       <r>    -3.1392    47.8456   101.6027 </r>
       <r>    -3.0741    48.3774   104.7514 </r>
       <r>    -3.0091    48.8242   107.9292 </r>
       <r>    -2.9441    48.6039   111.0920 </r>
       <r>    -2.8790    47.4491   114.1796 </r>
       <r>    -2.8140    45.7442   117.1559 </r>
       <r>    -2.7489    44.2278   120.0335 </r>
       <r>    -2.6839    43.7149   122.8776 </r>
       <r>    -2.6188    44.8786   125.7982 </r>
       <r>    -2.5538    47.7151   128.9033 </r>
       <r>    -2.4887    51.4964   132.2549 </r>
       <r>    -2.4237    55.4264   135.8617 </r>
       <r>    -2.3586    59.1386   139.7096 </r>
       <r>    -2.2936    62.4564   143.7735 </r>
       <r>    -2.2285    65.0765   148.0083 </r>
       <r>    -2.1635    66.9019   152.3620 </r>
       <r>    -2.0984    68.4022   156.8128 </r>
       <r>    -2.0334    70.2165   161.3814 </r>
       <r>    -1.9684    72.5242   166.1005 </r>
       <r>    -1.9033    74.8528   170.9704 </r>
       <r>    -1.8383    76.5631   175.9514 </r>
       <r>    -1.7732    77.5363   180.9962 </r>
       <r>    -1.7082    77.9900   186.0709 </r>
       <r>    -1.6431    77.9895   191.1457 </r>
       <r>    -1.5781    77.4250   196.1836 </r>
       <r>    -1.5130    76.0197   201.1303 </r>
       <r>    -1.4480    73.3225   205.9022 </r>
       <r>    -1.3829    69.1744   210.4038 </r>
       <r>    -1.3179    64.0816   214.5741 </r>
       <r>    -1.2528    58.9553   218.4109 </r>
       <r>    -1.1878    54.4588   221.9549 </r>
       <r>    -1.1227    50.9110   225.2692 </r>
       <r>    -1.0577    48.6860   228.4388 </r>
       <r>    -0.9927    48.1985   231.5759 </r>
       <r>    -0.9276    49.7184   234.8124 </r>
       <r>    -0.8626    53.0670   238.2669 </r>
       <r>    -0.7975    57.2595   241.9937 </r>
       <r>    -0.7325    60.5640   245.9356 </r>
       <r>    -0.6674    61.3969   249.9320 </r>
       <r>    -0.6024    59.4958   253.8045 </r>
       <r>    -0.5373    56.1052   257.4558 </r>
       <r>    -0.4723    52.9055   260.8986 </r>
       <r>    -0.4072    50.9637   264.2155 </r>
       <r>    -0.3422    50.4049   267.4957 </r>
       <r>    -0.2771    50.8812   270.8062 </r>
       <r>    -0.2121    52.0078   274.1909 </r>
       <r>    -0.1470    53.6306   277.6804 </r>
       <r>    -0.0820    55.7680   281.3092 </r>
       <r>    -0.0170    58.4146   285.1104 </r>
       <r>     0.0481    61.2779   289.0987 </r>
       <r>     0.1131    63.8253   293.2531 </r>
       <r>     0.1782    65.4181   297.5104 </r>
       <r>     0.2432    65.4539   301.7696 </r>
       <r>     0.3083    63.8359   305.9233 </r>
       <r>     0.3733    60.9913   309.8916 </r>
       <r>     0.4384    57.7501   313.6496 </r>
       <r>     0.5034    55.1164   317.2362 </r>
       <r>     0.5685    53.8355   320.7396 </r>
       <r>     0.6335    53.9234   324.2487 </r>
       <r>     0.6986    54.7867   327.8139 </r>
       <r>     0.7636    55.8249   331.4465 </r>
       <r>     0.8287    57.0673   335.1607 </r>
       <r>     0.8937    59.2190   339.0142 </r>
       <r>     0.9587    62.7099   343.0958 </r>
       <r>     1.0238    66.9956   347.4562 </r>
       <r>     1.0888    70.7491   352.0601 </r>
       <r>     1.1539    72.7944   356.7971 </r>
       <r>     1.2189    72.6390   361.5241 </r>
       <r>     1.2840    70.2735   366.0963 </r>
       <r>     1.3490    65.8944   370.3839 </r>
       <r>     1.4141    60.1042   374.2951 </r>
       <r>     1.4791    53.7443   377.7925 </r>
       <r>     1.5442    47.2595   380.8686 </r>
       <r>     1.6092    40.5786   383.5098 </r>
       <r>     1.6743    33.8479   385.7128 </r>
       <r>     1.7393    27.7476   387.5192 </r>
       <r>     1.8044    22.8720   389.0091 </r>
       <r>     1.8694    19.2939   390.2666 </r>
       <r>     1.9344    16.7663   391.3600 </r>
       <r>     1.9995    15.0335   392.3401 </r>
       <r>     2.0645    13.8698   393.2448 </r>
       <r>     2.1296    13.0586   394.0967 </r>
       <r>     2.1946    12.4635   394.9096 </r>
       <r>     2.2597    12.1248   395.6994 </r>
       <r>     2.3247    12.0043   396.4819 </r>
       <r>     2.3898    11.8917   397.2571 </r>
       <r>     2.4548    11.5771   398.0111 </r>
       <r>     2.5199    11.0920   398.7333 </r>
       <r>     2.5849    10.6577   399.4269 </r>
       <r>     2.6500    10.4656   400.1083 </r>
       <r>     2.7150    10.5933   400.7977 </r>
       <r>     2.7801    10.9698   401.5116 </r>
       <r>     2.8451    11.4209   402.2549 </r>
       <r>     2.9101    11.7967   403.0229 </r>
       <r>     2.9752    12.0475   403.8069 </r>
       <r>     3.0402    12.1724   404.5989 </r>
       <r>     3.1053    12.1695   405.3908 </r>
       <r>     3.1703    11.9800   406.1705 </r>
       <r>     3.2354    11.5716   406.9237 </r>
       <r>     3.3004    11.1335   407.6481 </r>
       <r>     3.3655    10.9342   408.3596 </r>
       <r>     3.4305    11.0530   409.0789 </r>
       <r>     3.4956    11.3764   409.8191 </r>
       <r>     3.5606    11.7839   410.5858 </r>
       <r>     3.6257    12.1485   411.3766 </r>
       <r>     3.6907    12.2876   412.1760 </r>
       <r>     3.7558    12.0560   412.9608 </r>
       <r>     3.8208    11.5536   413.7126 </r>
       <r>     3.8858    11.0458   414.4315 </r>
       <r>     3.9509    10.7442   415.1309 </r>
       <r>     4.0159    10.7535   415.8308 </r>
       <r>     4.0810    11.1071   416.5535 </r>
       <r>     4.1460    11.7338   417.3169 </r>
       <r>     4.2111    12.3867   418.1230 </r>
       <r>     4.2761    12.7044   418.9498 </r>
       <r>     4.3412    12.4502   419.7600 </r>
       <r>     4.4062    11.7558   420.5249 </r>
       <r>     4.4713    11.0757   421.2458 </r>
       <r>     4.5363    10.8480   421.9521 </r>
       <r>     4.6014    11.1545   422.6778 </r>
       <r>     4.6664    11.6159   423.4339 </r>
       <r>     4.7315    11.7174   424.1962 </r>
       <r>     4.7965    11.2484   424.9283 </r>
       <r>     4.8615    10.4641   425.6091 </r>
       <r>     4.9266     9.7178   426.2415 </r>
       <r>     4.9916     9.2141   426.8413 </r>
       <r>     5.0567     9.0129   427.4280 </r>
       <r>     5.1217     9.1093   428.0212 </r>
       <r>     5.1868     9.4644   428.6373 </r>
       <r>     5.2518     9.9996   429.2880 </r>
       <r>     5.3169    10.6141   429.9785 </r>
       <r>     5.3819    11.2108   430.7079 </r>
       <r>     5.4470    11.7167   431.4704 </r>
       <r>     5.5120    12.0361   432.2542 </r>
       <r>     5.5771    11.9747   433.0334 </r>
       <r>     5.6421    11.3301   433.7707 </r>
       <r>     5.7072    10.1631   434.4321 </r>
       <r>     5.7722     8.7739   435.0030 </r>
       <r>     5.8372     7.4829   435.4899 </r>
       <r>     5.9023     6.4634   435.9106 </r>
       <r>     5.9673     5.6964   436.2815 </r>
       <r>     6.0324     5.0966   436.6133 </r>
       <r>     6.0974     4.6484   436.9158 </r>
       <r>     6.1625     4.3431   437.1989 </r>
       <r>     6.2275     4.1388   437.4683 </r>
       <r>     6.2926     3.9868   437.7279 </r>
       <r>     6.3576     3.9026   437.9824 </r>
       <r>     6.4227     3.9192   438.2377 </r>
       <r>     6.4877     3.9921   438.4976 </r>
       <r>     6.5528     4.0145   438.7590 </r>
       <r>     6.6178     3.9138   439.0138 </r>
       <r>     6.6829     3.6613   439.2520 </r>
       <r>     6.7479     3.2334   439.4627 </r>
       <r>     6.8129     2.6553   439.6355 </r>
       <r>     6.8780     2.0133   439.7665 </r>
       <r>     6.9430     1.4100   439.8584 </r>
       <r>     7.0081     0.9176   439.9182 </r>
       <r>     7.0731     0.5563   439.9546 </r>
       <r>     7.1382     0.3195   439.9754 </r>
       <r>     7.2032     0.1760   439.9869 </r>
       <r>     7.2683     0.0940   439.9932 </r>
       <r>     7.3333     0.0487   439.9965 </r>
       <r>     7.3984     0.0248   439.9982 </r>
       <r>     7.4634     0.0120   439.9991 </r>
       <r>     7.5285     0.0045   439.9997 </r>
       <r>     7.5935     0.0019   439.9999 </r>
       <r>     7.6586     0.0008   439.9999 </r>
       <r>     7.7236     0.0000   440.0000 </r>
       <r>     7.7886     0.0000   440.0000 </r>
       <r>     7.8537     0.0000   440.0000 </r>
       <r>     7.9187     0.0000   440.0000 </r>
      </set>
     </set>
    </array>
   </total>
  </dos>
 </calculation>
 <structure name="finalpos" >
  <crystal>
   <varray name="basis" >
    <v>       8.42164176       0.00000000       0.00000000 </v>
    <v>       4.21082088       7.29335571       0.00000000 </v>
    <v>       0.00000000       0.00000000      21.87624171 </v>
   </varray>
   <i name="volume">   1343.68315334 </i>
   <varray name="rec_basis" >
    <v>       0.11874169      -0.06855555       0.00000000 </v>
    <v>       0.00000000       0.13711110       0.00000000 </v>
    <v>       0.00000000       0.00000000       0.04571169 </v>
   </varray>
  </crystal>
  <varray name="positions" >
   <v>       0.00000000       0.00000000       0.34283768 </v>
   <v>       0.33333333       0.00000000       0.34283768 </v>
   <v>       0.66666667       0.00000000       0.34283768 </v>
   <v>       0.00000000       0.33333333       0.34283768 </v>
   <v>       0.33333333       0.33333333       0.34283768 </v>
   <v>       0.66666667       0.33333333       0.34283768 </v>
   <v>       0.00000000       0.66666667       0.34283768 </v>
   <v>       0.33333333       0.66666667       0.34283768 </v>
   <v>       0.66666667       0.66666667       0.34283768 </v>
   <v>       0.11111111       0.11111111       0.44761256 </v>
   <v>       0.44444444       0.11111111       0.44761256 </v>
   <v>       0.77777778       0.11111111       0.44761256 </v>
   <v>       0.11111111       0.44444444       0.44761256 </v>
   <v>       0.44444444       0.44444444       0.44761256 </v>
   <v>       0.77777778       0.44444444       0.44761256 </v>
   <v>       0.11111111       0.77777778       0.44761256 </v>
   <v>       0.44444444       0.77777778       0.44761256 </v>
   <v>       0.77777778       0.77777778       0.44761256 </v>
   <v>       0.88768084       0.22385623       0.55081838 </v>
   <v>       0.22262956       0.22485013       0.55255386 </v>
   <v>       0.55180616       0.22498746       0.55242940 </v>
   <v>       0.88806903       0.55698725       0.55095161 </v>
   <v>       0.22251655       0.55442027       0.55251907 </v>
   <v>       0.55435930       0.55695372       0.55099908 </v>
   <v>       0.88776732       0.89045419       0.55081174 </v>
   <v>       0.22116943       0.89038639       0.55088887 </v>
   <v>       0.55435864       0.89057582       0.55098278 </v>
   <v>       0.99729754       0.00322725       0.65598427 </v>
   <v>       0.33054062       0.00277141       0.65587566 </v>
   <v>       0.66466105       0.00284145       0.65585100 </v>
   <v>       0.99683920       0.33636318       0.65583676 </v>
   <v>       0.33065584       0.33678897       0.66602411 </v>
   <v>       0.66479558       0.33641287       0.65584196 </v>
   <v>       0.99692766       0.67061464       0.65583456 </v>
   <v>       0.33077588       0.67048493       0.65584563 </v>
   <v>       0.66396198       0.66983993       0.65594963 </v>
   <v>       0.33009546       0.33804416       0.76084461 </v>
   <v>       0.18706160       0.41492418       0.77628546 </v>
   <v>       0.39631787       0.19531640       0.77663768 </v>
   <v>       0.40664852       0.40465297       0.77617188 </v>
  </varray>
  <varray name="selective"  type="logical" >
   <v type="logical" >  F  F  F </v>
   <v type="logical" >  F  F  F </v>
   <v type="logical" >  F  F  F </v>
   <v type="logical" >  F  F  F </v>
   <v type="logical" >  F  F  F </v>
   <v type="logical" >  F  F  F </v>
   <v type="logical" >  F  F  F </v>
   <v type="logical" >  F  F  F </v>
   <v type="logical" >  F  F  F </v>
   <v type="logical" >  F  F  F </v>
   <v type="logical" >  F  F  F </v>
   <v type="logical" >  F  F  F </v>
   <v type="logical" >  F  F  F </v>
   <v type="logical" >  F  F  F </v>
   <v type="logical" >  F  F  F </v>
   <v type="logical" >  F  F  F </v>
   <v type="logical" >  F  F  F </v>
   <v type="logical" >  F  F  F </v>
   <v type="logical" >  T  T  T </v>
   <v type="logical" >  T  T  T </v>
   <v type="logical" >  T  T  T </v>
   <v type="logical" >  T  T  T </v>
   <v type="logical" >  T  T  T </v>
   <v type="logical" >  T  T  T </v>
   <v type="logical" >  T  T  T </v>
   <v type="logical" >  T  T  T </v>
   <v type="logical" >  T  T  T </v>
   <v type="logical" >  T  T  T </v>
   <v type="logical" >  T  T  T </v>
   <v type="logical" >  T  T  T </v>
   <v type="logical" >  T  T  T </v>
   <v type="logical" >  T  T  T </v>
   <v type="logical" >  T  T  T </v>
   <v type="logical" >  T  T  T </v>
   <v type="logical" >  T  T  T </v>
   <v type="logical" >  T  T  T </v>
   <v type="logical" >  T  T  T </v>
   <v type="logical" >  T  T  T </v>
   <v type="logical" >  T  T  T </v>
   <v type="logical" >  T  T  T </v>
  </varray>
  <nose>
   <v>      -3.00000000       0.00000000       0.00010000       0.00010000 </v>
  </nose>
 </structure>
</modeling>
