 running on   20 total cores
 distrk:  each k-point on   20 cores,    1 groups
 distr:  one band on    4 cores,    5 groups
 using from now: INCAR     
 vasp.5.4.1 24Jun15 (build Oct 10 2016 12:42:00) complex                        
  
 POSCAR found :  3 types and      40 ions
 scaLAPACK will be used
 LDA part: xc-table for Pade appr. of Perdew
 POSCAR found :  3 types and      40 ions
 POSCAR, INCAR and KPOINTS ok, starting setup
 WARNING: small aliasing (wrap around) errors must be expected
 FFT: planning ...
 WAVECAR not read
 entering main loop
       N       E                     dE             d eps       ncg     rms          rms(c)
DAV:   1     0.217831580395E+04    0.21783E+04   -0.14499E+05 23850   0.118E+03
DAV:   2    -0.817271791321E+02   -0.22600E+04   -0.20988E+04 27790   0.270E+02
DAV:   3    -0.239808223483E+03   -0.15808E+03   -0.14255E+03 28600   0.639E+01
DAV:   4    -0.246853203832E+03   -0.70450E+01   -0.67856E+01 30120   0.130E+01    0.624E+01
RMM:   5    -0.235514009868E+03    0.11339E+02   -0.51403E+01 25200   0.145E+01    0.437E+01
RMM:   6    -0.275808503640E+03   -0.40294E+02   -0.78050E+01 25059   0.138E+01    0.557E+01
RMM:   7    -0.232634730994E+03    0.43174E+02   -0.25038E+01 24524   0.856E+00    0.164E+01
RMM:   8    -0.241926066612E+03   -0.92913E+01   -0.19992E+01 25191   0.713E+00    0.317E+01
RMM:   9    -0.238529617687E+03    0.33964E+01   -0.58220E+00 25410   0.356E+00    0.282E+01
RMM:  10    -0.230426205822E+03    0.81034E+01   -0.28388E+00 24688   0.287E+00    0.929E+00
RMM:  11    -0.229743085562E+03    0.68312E+00   -0.79904E-01 25198   0.141E+00    0.491E+00
RMM:  12    -0.229638536239E+03    0.10455E+00   -0.26885E-01 26135   0.763E-01    0.342E+00
RMM:  13    -0.229589119853E+03    0.49416E-01   -0.10119E-01 25658   0.494E-01    0.188E+00
RMM:  14    -0.229574540953E+03    0.14579E-01   -0.50500E-02 25072   0.361E-01    0.108E+00
RMM:  15    -0.229567905232E+03    0.66357E-02   -0.16566E-02 25439   0.211E-01    0.651E-01
RMM:  16    -0.229565272669E+03    0.26326E-02   -0.43017E-03 25656   0.108E-01    0.334E-01
RMM:  17    -0.229564436835E+03    0.83583E-03   -0.19805E-03 25089   0.726E-02    0.271E-01
RMM:  18    -0.229563822192E+03    0.61464E-03   -0.80192E-04 25065   0.488E-02    0.127E-01
RMM:  19    -0.229563806998E+03    0.15193E-04   -0.25254E-04 25477   0.266E-02    0.112E-01
RMM:  20    -0.229563715929E+03    0.91069E-04   -0.23722E-04 25056   0.229E-02    0.870E-02
RMM:  21    -0.229563724306E+03   -0.83765E-05   -0.18876E-04 24944   0.191E-02    0.731E-02
RMM:  22    -0.229563809132E+03   -0.84826E-04   -0.13207E-04 25078   0.161E-02    0.698E-02
RMM:  23    -0.229563935410E+03   -0.12628E-03   -0.51325E-05 25457   0.105E-02    0.631E-02
RMM:  24    -0.229564116742E+03   -0.18133E-03   -0.40385E-05 24802   0.102E-02    0.349E-02
RMM:  25    -0.229564302935E+03   -0.18619E-03   -0.26336E-05 25002   0.794E-03    0.277E-02
RMM:  26    -0.229564561305E+03   -0.25837E-03   -0.25862E-05 24108   0.684E-03    0.147E-02
RMM:  27    -0.229564663994E+03   -0.10269E-03   -0.58803E-06 19473   0.333E-03    0.136E-02
RMM:  28    -0.229564774472E+03   -0.11048E-03   -0.38743E-06 17306   0.272E-03    0.101E-02
RMM:  29    -0.229564855909E+03   -0.81436E-04   -0.23544E-06 15776   0.219E-03    0.677E-03
RMM:  30    -0.229564994150E+03   -0.13824E-03   -0.48906E-06 17780   0.273E-03    0.699E-03
RMM:  31    -0.229565041344E+03   -0.47194E-04   -0.14962E-06 15217   0.158E-03    0.463E-03
RMM:  32    -0.229565078570E+03   -0.37226E-04   -0.10693E-06 14460   0.132E-03    0.290E-03
RMM:  33    -0.229565089827E+03   -0.11257E-04   -0.34898E-07 10233   0.747E-04    0.235E-03
RMM:  34    -0.229565108969E+03   -0.19143E-04   -0.80661E-07 13346   0.102E-03    0.104E-03
RMM:  35    -0.229565113707E+03   -0.47374E-05   -0.25094E-07  7815   0.610E-04    0.104E-03
RMM:  36    -0.229565116237E+03   -0.25305E-05   -0.16430E-07  7742   0.588E-04    0.546E-04
RMM:  37    -0.229565117835E+03   -0.15973E-05   -0.12882E-07  8111   0.555E-04    0.253E-04
RMM:  38    -0.229565118335E+03   -0.50011E-06   -0.42261E-08  4601   0.424E-04
   1 F= -.22956512E+03 E0= -.22848941E+03  d E =-.215142E+01
