 vasp.5.4.1 24Jun15 (build Oct 10 2016 12:42:00) complex                        
  
 executed on           IFC91_ompi date 2018.07.02  11:07:21
 running on   20 total cores
 distrk:  each k-point on   20 cores,    1 groups
 distr:  one band on NCORES_PER_BAND=   4 cores,    5 groups


--------------------------------------------------------------------------------------------------------


 INCAR:
 POTCAR:    PAW_PBE Pt 04Feb2005                  
 POTCAR:    PAW_PBE C 08Apr2002                   
 POTCAR:    PAW_PBE H 15Jun2001                   
 POTCAR:    PAW_PBE Pt 04Feb2005                  
   VRHFIN =Pt: s1d9                                                             
   LEXCH  = PE                                                                  
   EATOM  =   729.1176 eV,   53.5886 Ry                                         
                                                                                
   TITEL  = PAW_PBE Pt 04Feb2005                                                
   LULTRA =        F    use ultrasoft PP ?                                      
   IUNSCR =        1    unscreen: 0-lin 1-nonlin 2-no                           
   RPACOR =    2.330    partial core radius                                     
   POMASS =  195.080; ZVAL   =   10.000    mass and valenz                      
   RCORE  =    2.600    outmost cutoff radius                                   
   RWIGS  =    2.750; RWIGS  =    1.455    wigner-seitz radius (au A)           
   ENMAX  =  230.283; ENMIN  =  172.712 eV                                      
   ICORE  =        3    local potential                                         
   LCOR   =        T    correct aug charges                                     
   LPAW   =        T    paw PP                                                  
   EAUG   =  358.966                                                            
   DEXC   =    0.000                                                            
   RMAX   =    2.658    core radius for proj-oper                               
   RAUG   =    1.300    factor for augmentation sphere                          
   RDEP   =    2.761    radius for radial grids                                 
   RDEPT  =    2.203    core radius for aug-charge                              
                                                                                
   Atomic configuration                                                         
   16 entries                                                                   
     n  l   j            E        occ.                                          
     1  0  0.50    -78401.1885   2.0000                                         
     2  0  0.50    -13770.7750   2.0000                                         
     2  1  1.50    -11931.0468   6.0000                                         
     3  0  0.50     -3234.7234   2.0000                                         
     3  1  1.50     -2699.2216   6.0000                                         
     3  2  2.50     -2119.5714  10.0000                                         
     4  0  0.50      -695.1528   2.0000                                         
     4  1  1.50      -519.6034   6.0000                                         
     4  2  2.50      -306.6786  10.0000                                         
     4  3  3.50       -70.1041  14.0000                                         
     5  0  0.50      -101.7747   2.0000                                         
     5  1  1.50       -55.9873   6.0000                                         
     5  2  2.50        -6.1423   9.0000                                         
     6  0  0.50        -5.6573   1.0000                                         
     6  1  1.50        -6.8029   0.0000                                         
     5  3  2.50        -1.3606   0.0000                                         
   Description                                                                  
     l       E           TYP  RCUT    TYP  RCUT                                 
     2     -6.1423404     23  2.500                                             
     2     -7.5029230     23  2.500                                             
     0     -5.6573207     23  2.500                                             
     0      0.7416693     23  2.500                                             
     1     -2.7211652     23  2.600                                             
     1     20.4087390     23  2.600                                             
     3     -1.3605826     23  2.500                                             
  local pseudopotential read in
  partial core-charges read in
  partial kinetic energy density read in
  atomic valenz-charges read in
  non local Contribution for L=           2  read in
    real space projection operators read in
  non local Contribution for L=           2  read in
    real space projection operators read in
  non local Contribution for L=           0  read in
    real space projection operators read in
  non local Contribution for L=           0  read in
    real space projection operators read in
  non local Contribution for L=           1  read in
    real space projection operators read in
  non local Contribution for L=           1  read in
    real space projection operators read in
    PAW grid and wavefunctions read in
 
   number of l-projection  operators is LMAX  =           6
   number of lm-projection operators is LMMAX =          18
 
 POTCAR:    PAW_PBE C 08Apr2002                   
   VRHFIN =C: s2p2                                                              
   LEXCH  = PE                                                                  
   EATOM  =   147.1560 eV,   10.8157 Ry                                         
                                                                                
   TITEL  = PAW_PBE C 08Apr2002                                                 
   LULTRA =        F    use ultrasoft PP ?                                      
   IUNSCR =        1    unscreen: 0-lin 1-nonlin 2-no                           
   RPACOR =    1.200    partial core radius                                     
   POMASS =   12.011; ZVAL   =    4.000    mass and valenz                      
   RCORE  =    1.500    outmost cutoff radius                                   
   RWIGS  =    1.630; RWIGS  =    0.863    wigner-seitz radius (au A)           
   ENMAX  =  400.000; ENMIN  =  300.000 eV                                      
   ICORE  =        2    local potential                                         
   LCOR   =        T    correct aug charges                                     
   LPAW   =        T    paw PP                                                  
   EAUG   =  644.873                                                            
   DEXC   =    0.000                                                            
   RMAX   =    1.529    core radius for proj-oper                               
   RAUG   =    1.300    factor for augmentation sphere                          
   RDEP   =    1.501    radius for radial grids                                 
   RDEPT  =    1.300    core radius for aug-charge                              
                                                                                
   Atomic configuration                                                         
    4 entries                                                                   
     n  l   j            E        occ.                                          
     1  0  0.50      -273.3789   2.0000                                         
     2  0  0.50       -13.7508   2.0000                                         
     2  1  0.50        -5.2854   2.0000                                         
     3  2  1.50        -5.4423   0.0000                                         
   Description                                                                  
     l       E           TYP  RCUT    TYP  RCUT                                 
     0    -13.7508458     23  1.200                                             
     0     -8.2022199     23  1.200                                             
     1     -5.2854383     23  1.500                                             
     1     34.0145650     23  1.500                                             
     2     -5.4423304      7  1.500                                             
  local pseudopotential read in
  partial core-charges read in
  partial kinetic energy density read in
  atomic valenz-charges read in
  non local Contribution for L=           0  read in
    real space projection operators read in
  non local Contribution for L=           0  read in
    real space projection operators read in
  non local Contribution for L=           1  read in
    real space projection operators read in
  non local Contribution for L=           1  read in
    real space projection operators read in
    PAW grid and wavefunctions read in
 
   number of l-projection  operators is LMAX  =           4
   number of lm-projection operators is LMMAX =           8
 
 POTCAR:    PAW_PBE H 15Jun2001                   
   VRHFIN =H: ultrasoft test                                                    
   LEXCH  = PE                                                                  
   EATOM  =    12.4884 eV,    0.9179 Ry                                         
                                                                                
   TITEL  = PAW_PBE H 15Jun2001                                                 
   LULTRA =        F    use ultrasoft PP ?                                      
   IUNSCR =        0    unscreen: 0-lin 1-nonlin 2-no                           
   RPACOR =    0.000    partial core radius                                     
   POMASS =    1.000; ZVAL   =    1.000    mass and valenz                      
   RCORE  =    1.100    outmost cutoff radius                                   
   RWIGS  =    0.700; RWIGS  =    0.370    wigner-seitz radius (au A)           
   ENMAX  =  250.000; ENMIN  =  200.000 eV                                      
   RCLOC  =    0.701    cutoff for local pot                                    
   LCOR   =        T    correct aug charges                                     
   LPAW   =        T    paw PP                                                  
   EAUG   =  400.000                                                            
   RMAX   =    1.123    core radius for proj-oper                               
   RAUG   =    1.200    factor for augmentation sphere                          
   RDEP   =    1.112    radius for radial grids                                 
   RDEPT  =    0.926    core radius for aug-charge                              
                                                                                
   Atomic configuration                                                         
    2 entries                                                                   
     n  l   j            E        occ.                                          
     1  0  0.50        -6.4927   1.0000                                         
     2  1  0.50        -3.4015   0.0000                                         
   Description                                                                  
     l       E           TYP  RCUT    TYP  RCUT                                 
     0     -6.4927494     23  1.100                                             
     0      6.8029130     23  1.100                                             
     1     -4.0817478     23  1.100                                             
  local pseudopotential read in
  atomic valenz-charges read in
  non local Contribution for L=           0  read in
    real space projection operators read in
  non local Contribution for L=           0  read in
    real space projection operators read in
  non local Contribution for L=           1  read in
    real space projection operators read in
    PAW grid and wavefunctions read in
 
   number of l-projection  operators is LMAX  =           3
   number of lm-projection operators is LMMAX =           5
 
 Optimization of the real space projectors (new method)

 maximal supplied QI-value         = 14.36
 optimisation between [QCUT,QGAM] = [ 10.20, 20.39] = [ 29.12,116.47] Ry 
 Optimized for a Real-space Cutoff    1.51 Angstroem

   l    n(q)    QCUT    max X(q) W(low)/X(q) W(high)/X(q)  e(spline) 
   2      8    10.197    66.195    0.45E-03    0.45E-03    0.14E-06
   2      8    10.197    64.643    0.46E-03    0.46E-03    0.14E-06
   0      9    10.197    95.520    0.15E-03    0.11E-03    0.54E-07
   0      9    10.197    63.403    0.15E-03    0.11E-03    0.52E-07
   1      9    10.197    19.961    0.13E-03    0.17E-03    0.77E-07
   1      9    10.197    13.289    0.10E-03    0.15E-03    0.67E-07
 Optimization of the real space projectors (new method)

 maximal supplied QI-value         = 25.13
 optimisation between [QCUT,QGAM] = [ 10.05, 20.36] = [ 28.30,116.06] Ry 
 Optimized for a Real-space Cutoff    1.30 Angstroem

   l    n(q)    QCUT    max X(q) W(low)/X(q) W(high)/X(q)  e(spline) 
   0      8    10.053   115.676    0.49E-03    0.72E-03    0.18E-06
   0      8    10.053    87.132    0.49E-03    0.71E-03    0.18E-06
   1      7    10.053     4.429    0.32E-03    0.31E-03    0.18E-06
   1      7    10.053     2.733    0.23E-03    0.19E-03    0.20E-06
 Optimization of the real space projectors (new method)

 maximal supplied QI-value         = 34.20
 optimisation between [QCUT,QGAM] = [  9.92, 20.18] = [ 27.55,114.04] Ry 
 Optimized for a Real-space Cutoff    1.26 Angstroem

   l    n(q)    QCUT    max X(q) W(low)/X(q) W(high)/X(q)  e(spline) 
   0      8     9.919    19.460    0.50E-03    0.23E-03    0.29E-06
   0      8     9.919    12.209    0.48E-03    0.23E-03    0.28E-06
   1      7     9.919     4.655    0.17E-03    0.75E-03    0.30E-06
  PAW_PBE Pt 04Feb2005                  :
 energy of atom  1       EATOM= -729.1176
 kinetic energy error for atom=    0.0056 (will be added to EATOM!!)
  PAW_PBE C 08Apr2002                   :
 energy of atom  2       EATOM= -147.1560
 kinetic energy error for atom=    0.0288 (will be added to EATOM!!)
  PAW_PBE H 15Jun2001                   :
 energy of atom  3       EATOM=  -12.4884
 kinetic energy error for atom=    0.0098 (will be added to EATOM!!)
 
 
 POSCAR: Pt  C  H                                
  positions in cartesian coordinates
  No initial velocities read in
 exchange correlation table for  LEXCH =        8
   RHO(1)=    0.500       N(1)  =     2000
   RHO(2)=  100.500       N(2)  =     4000

 VTST: version 3.1, (03/28/14)

 CHAIN: initializing optimizer
 
 OPT: Using VASP Dynamics algorithm
 CHAIN: Read ICHAIN            0
 
 POSCAR: Pt  C  H                                
  positions in cartesian coordinates
  No initial velocities read in
 


--------------------------------------------------------------------------------------------------------


 ion  position               nearest neighbor table
   1  0.000  0.000  0.343-  12 2.81  16 2.81  10 2.81   6 2.81   7 2.81   8 2.81   2 2.81   3 2.81
                             4 2.81
   2  0.333  0.000  0.343-  10 2.81  11 2.81  17 2.81   3 2.81   9 2.81   1 2.81   4 2.81   5 2.81
                             8 2.81
   3  0.667  0.000  0.343-  11 2.81  18 2.81  12 2.81   2 2.81   5 2.81   9 2.81   1 2.81   6 2.81
                             7 2.81
   4  0.000  0.333  0.343-  10 2.81  13 2.81  15 2.81   7 2.81   9 2.81   2 2.81   5 2.81   6 2.81
                             1 2.81
   5  0.333  0.333  0.343-  14 2.81  13 2.81  11 2.81   8 2.81   6 2.81   3 2.81   7 2.81   2 2.81
                             4 2.81
   6  0.667  0.333  0.343-  12 2.81  14 2.81  15 2.81   5 2.81   8 2.81   9 2.81   1 2.81   3 2.81
                             4 2.81
   7  0.000  0.667  0.343-  13 2.81  18 2.81  16 2.81   4 2.81   5 2.81   9 2.81   1 2.81   3 2.81
                             8 2.81
   8  0.333  0.667  0.343-  14 2.81  16 2.81  17 2.81   5 2.81   6 2.81   9 2.81   2 2.81   7 2.81
                             1 2.81
   9  0.667  0.667  0.343-  15 2.81  17 2.81  18 2.81   8 2.81   6 2.81   4 2.81   2 2.81   3 2.81
                             7 2.81
  10  0.111  0.111  0.448-  26 2.75   4 2.81   2 2.81   1 2.81  13 2.81  11 2.81  17 2.81  15 2.81
                            12 2.81  16 2.81  20 2.82  19 2.83
  11  0.444  0.111  0.448-  27 2.79  21 2.80   5 2.81   2 2.81   3 2.81  14 2.81  10 2.81  13 2.81
                            18 2.81  12 2.81  17 2.81  20 2.82
  12  0.778  0.111  0.448-  19 2.80  25 2.80   1 2.81   6 2.81   3 2.81  15 2.81  14 2.81  16 2.81
                            18 2.81  10 2.81  11 2.81  21 2.81
  13  0.111  0.444  0.448-  23 2.80  22 2.80  20 2.80   4 2.81   5 2.81   7 2.81  10 2.81  11 2.81
                            14 2.81  15 2.81  16 2.81  18 2.81
  14  0.444  0.444  0.448-  24 2.79  21 2.80   5 2.81   6 2.81   8 2.81  11 2.81  13 2.81  12 2.81
                            16 2.81  15 2.81  17 2.81  23 2.82
  15  0.778  0.444  0.448-  22 2.78  19 2.80  24 2.80   4 2.81   6 2.81   9 2.81  12 2.81  10 2.81
                            18 2.81  13 2.81  14 2.81  17 2.81
  16  0.111  0.778  0.448-  26 2.75   8 2.81   1 2.81   7 2.81  17 2.81  14 2.81  10 2.81  12 2.81
                            18 2.81  13 2.81  23 2.82  25 2.83
  17  0.444  0.778  0.448-  26 2.77  27 2.80  24 2.80   2 2.81   8 2.81   9 2.81  16 2.81  10 2.81
                            18 2.81  14 2.81  15 2.81  11 2.81
  18  0.778  0.778  0.448-  22 2.78  25 2.79  27 2.80   7 2.81   3 2.81   9 2.81  15 2.81  16 2.81
                            17 2.81  11 2.81  12 2.81  13 2.81
  19  0.884  0.224  0.552-  24 2.78  31 2.79  21 2.79  12 2.80  15 2.80  28 2.80  22 2.80  26 2.82
                            25 2.82  10 2.83  20 2.83  33 2.85
  20  0.220  0.225  0.553-  23 2.76  29 2.79  21 2.79  13 2.80  22 2.80  31 2.81  27 2.82  10 2.82
                            11 2.82  26 2.83  19 2.83  32 2.88
  21  0.554  0.223  0.552-  23 2.79  19 2.79  20 2.79  25 2.79  11 2.80  27 2.80  24 2.80  14 2.80
                            12 2.81  33 2.90  30 2.91  32 2.95
  22  0.886  0.556  0.551-  15 2.78  18 2.78  13 2.80  25 2.80  20 2.80  24 2.80  23 2.80  19 2.80
                            27 2.80  34 2.81  31 2.82  36 2.82
  23  0.221  0.553  0.553-  20 2.76  35 2.79  21 2.79  13 2.80  22 2.80  34 2.81  24 2.82  14 2.82
                            16 2.82  26 2.83  25 2.83  32 2.89
  24  0.554  0.555  0.552-  19 2.78  14 2.79  17 2.80  21 2.80  15 2.80  22 2.80  36 2.80  35 2.81
                            23 2.82  27 2.82  26 2.82  33 2.88
  25  0.884  0.890  0.552-  27 2.78  18 2.79  21 2.79  28 2.79  34 2.80  22 2.80  12 2.80  19 2.82
                            26 2.82  16 2.83  23 2.83  30 2.85
  26  0.219  0.890  0.550-  16 2.75  10 2.75  17 2.77  29 2.79  35 2.79  19 2.82  25 2.82  27 2.82
                            24 2.82  20 2.83  23 2.83  28 2.83
  27  0.554  0.890  0.552-  25 2.78  11 2.79  17 2.80  21 2.80  18 2.80  22 2.80  29 2.81  36 2.81
                            20 2.82  26 2.82  24 2.82  30 2.87
  28  0.998  0.999  0.656-  35 2.74  29 2.75  25 2.79  30 2.80  19 2.80  33 2.80  34 2.81  31 2.81
                            26 2.83
  29  0.325  0.998  0.655-  35 2.72  28 2.75  26 2.79  20 2.79  27 2.81  31 2.81  36 2.82  32 2.85
                            30 2.88
  30  0.668  0.994  0.661-  37 2.01  34 2.75  36 2.78  28 2.80  25 2.85  33 2.86  27 2.87  29 2.88
                            32 2.89  21 2.91
  31  0.995  0.335  0.657-  33 2.76  32 2.78  19 2.79  36 2.80  34 2.80  20 2.81  29 2.81  28 2.81
                            22 2.82
  32  0.324  0.337  0.663-  38 2.18  37 2.18  34 2.78  31 2.78  29 2.85  35 2.86  20 2.88  33 2.89
                            23 2.89  30 2.89  21 2.95
  33  0.668  0.334  0.661-  38 2.01  31 2.76  36 2.78  28 2.80  19 2.85  30 2.86  35 2.88  24 2.88
                            32 2.89  21 2.90
  34  0.995  0.667  0.657-  30 2.75  32 2.78  25 2.80  36 2.80  31 2.80  28 2.81  23 2.81  22 2.81
                            35 2.82
  35  0.326  0.675  0.655-  29 2.72  28 2.74  23 2.79  26 2.79  36 2.81  24 2.81  34 2.82  32 2.86
                            33 2.88
  36  0.663  0.667  0.657-  30 2.78  33 2.78  31 2.80  34 2.80  24 2.80  35 2.81  27 2.81  29 2.82
                            22 2.82
  37  0.521  0.154  0.731-  39 1.09  38 1.40  30 2.01  32 2.18
  38  0.522  0.320  0.731-  40 1.09  37 1.40  33 2.01  32 2.18
  39  0.480  0.100  0.770-  37 1.09
  40  0.481  0.416  0.770-  38 1.09
 
  LATTYP: Found a hexagonal cell.
 ALAT       =     8.4216417639
 C/A-ratio  =     2.5976219743
  
  Lattice vectors:
  
 A1 = (   4.2108208820,  -7.2933557091,   0.0000000000)
 A2 = (  -8.4216417639,   0.0000000000,   0.0000000000)
 A3 = (   0.0000000000,   0.0000000000, -21.8762417060)


Analysis of symmetry for initial positions (statically):
=====================================================================
 Subroutine PRICEL returns:
 Original cell was already a primitive cell.
 

 Routine SETGRP: Setting up the symmetry group for a 
 hexagonal supercell.


 Subroutine GETGRP returns: Found  1 space group operations
 (whereof  1 operations were pure point group operations)
 out of a pool of 24 trial point group operations.


The static configuration has the point symmetry C_1 .


Analysis of symmetry for dynamics (positions and initial velocities):
=====================================================================
 Subroutine PRICEL returns:
 Original cell was already a primitive cell.
 

 Routine SETGRP: Setting up the symmetry group for a 
 hexagonal supercell.


 Subroutine GETGRP returns: Found  1 space group operations
 (whereof  1 operations were pure point group operations)
 out of a pool of 24 trial point group operations.


The dynamic configuration has the point symmetry C_1 .


Analysis of constrained symmetry for selective dynamics:
=====================================================================
 Subroutine PRICEL returns:
 Original cell was already a primitive cell.
 

 Routine SETGRP: Setting up the symmetry group for a 
 hexagonal supercell.


 Subroutine GETGRP returns: Found  1 space group operations
 (whereof  1 operations were pure point group operations)
 out of a pool of 24 trial point group operations.


The constrained configuration has the point symmetry C_1 .
 
 
 KPOINTS: KPOINTS created by Atomic Simulation Env

Automatic generation of k-mesh.
Space group operators:
 irot       det(A)        alpha          n_x          n_y          n_z        tau_x        tau_y        tau_z
    1     1.000000     0.000000     1.000000     0.000000     0.000000     0.000000     0.000000     0.000000
 
 Subroutine IBZKPT returns following result:
 ===========================================
 
 Found     54 irreducible k-points:
 
 Following reciprocal coordinates:
            Coordinates               Weight
  0.083333  0.083333  0.000000     16.000000
  0.000000  0.083333  0.000000     16.000000
 -0.083333  0.000000  0.000000     16.000000
  0.250000  0.083333  0.000000     16.000000
  0.166667  0.250000  0.000000     16.000000
 -0.083333  0.166667  0.000000     16.000000
  0.166667 -0.083333  0.000000     16.000000
 -0.083333 -0.250000  0.000000     16.000000
 -0.250000 -0.166667  0.000000     16.000000
  0.416667  0.083333  0.000000     16.000000
  0.333333  0.416667  0.000000     16.000000
 -0.083333  0.333333  0.000000     16.000000
  0.333333 -0.083333  0.000000     16.000000
 -0.083333 -0.416667  0.000000     16.000000
 -0.416667 -0.333333  0.000000     16.000000
 -0.416667  0.083333  0.000000     16.000000
  0.500000 -0.416667  0.000000     16.000000
 -0.083333  0.500000  0.000000     16.000000
  0.500000 -0.083333  0.000000     16.000000
 -0.083333  0.416667  0.000000     16.000000
  0.416667  0.500000  0.000000     16.000000
 -0.250000  0.083333  0.000000     16.000000
 -0.333333 -0.250000  0.000000     16.000000
 -0.083333 -0.333333  0.000000     16.000000
 -0.333333 -0.083333  0.000000     16.000000
 -0.083333  0.250000  0.000000     16.000000
  0.250000  0.333333  0.000000     16.000000
 -0.083333  0.083333  0.000000     16.000000
 -0.166667 -0.083333  0.000000     16.000000
 -0.083333 -0.166667  0.000000     16.000000
  0.250000  0.250000  0.000000     16.000000
  0.000000  0.250000  0.000000     16.000000
 -0.250000  0.000000  0.000000     16.000000
  0.416667  0.250000  0.000000     16.000000
  0.166667  0.416667  0.000000     16.000000
 -0.250000  0.166667  0.000000     16.000000
  0.166667 -0.250000  0.000000     16.000000
 -0.250000 -0.416667  0.000000     16.000000
 -0.416667 -0.166667  0.000000     16.000000
 -0.416667  0.250000  0.000000     16.000000
  0.333333 -0.416667  0.000000     16.000000
 -0.250000  0.333333  0.000000     16.000000
  0.333333 -0.250000  0.000000     16.000000
 -0.250000  0.416667  0.000000     16.000000
  0.416667 -0.333333  0.000000     16.000000
 -0.250000  0.250000  0.000000     16.000000
  0.500000 -0.250000  0.000000     16.000000
 -0.250000  0.500000  0.000000     16.000000
  0.416667  0.416667  0.000000     16.000000
  0.000000  0.416667  0.000000     16.000000
 -0.416667 -0.000000  0.000000     16.000000
 -0.416667  0.416667  0.000000     16.000000
  0.166667 -0.416667  0.000000     16.000000
 -0.416667  0.166667  0.000000     16.000000
 
 Following cartesian coordinates:
            Coordinates               Weight
  0.009895  0.005713  0.000000     16.000000
  0.000000  0.011426  0.000000     16.000000
 -0.009895  0.005713  0.000000     16.000000
  0.029685 -0.005713  0.000000     16.000000
  0.019790  0.022852  0.000000     16.000000
 -0.009895  0.028565  0.000000     16.000000
  0.019790 -0.022852  0.000000     16.000000
 -0.009895 -0.028565  0.000000     16.000000
 -0.029685 -0.005713  0.000000     16.000000
  0.049476 -0.017139  0.000000     16.000000
  0.039581  0.034278  0.000000     16.000000
 -0.009895  0.051417  0.000000     16.000000
  0.039581 -0.034278  0.000000     16.000000
 -0.009895 -0.051417  0.000000     16.000000
 -0.049476 -0.017139  0.000000     16.000000
 -0.049476  0.039991  0.000000     16.000000
  0.059371 -0.091407  0.000000     16.000000
 -0.009895  0.074269  0.000000     16.000000
  0.059371 -0.045704  0.000000     16.000000
 -0.009895  0.062843  0.000000     16.000000
  0.049476  0.039991  0.000000     16.000000
 -0.029685  0.028565  0.000000     16.000000
 -0.039581 -0.011426  0.000000     16.000000
 -0.009895 -0.039991  0.000000     16.000000
 -0.039581  0.011426  0.000000     16.000000
 -0.009895  0.039991  0.000000     16.000000
  0.029685  0.028565  0.000000     16.000000
 -0.009895  0.017139  0.000000     16.000000
 -0.019790  0.000000  0.000000     16.000000
 -0.009895 -0.017139  0.000000     16.000000
  0.029685  0.017139  0.000000     16.000000
  0.000000  0.034278  0.000000     16.000000
 -0.029685  0.017139  0.000000     16.000000
  0.049476  0.005713  0.000000     16.000000
  0.019790  0.045704  0.000000     16.000000
 -0.029685  0.039991  0.000000     16.000000
  0.019790 -0.045704  0.000000     16.000000
 -0.029685 -0.039991  0.000000     16.000000
 -0.049476  0.005713  0.000000     16.000000
 -0.049476  0.062843  0.000000     16.000000
  0.039581 -0.079981  0.000000     16.000000
 -0.029685  0.062843  0.000000     16.000000
  0.039581 -0.057130  0.000000     16.000000
 -0.029685  0.074269  0.000000     16.000000
  0.049476 -0.074269  0.000000     16.000000
 -0.029685  0.051417  0.000000     16.000000
  0.059371 -0.068556  0.000000     16.000000
 -0.029685  0.085694  0.000000     16.000000
  0.049476  0.028565  0.000000     16.000000
  0.000000  0.057130  0.000000     16.000000
 -0.049476  0.028565  0.000000     16.000000
 -0.049476  0.085694  0.000000     16.000000
  0.019790 -0.068556  0.000000     16.000000
 -0.049476  0.051417  0.000000     16.000000
 


--------------------------------------------------------------------------------------------------------




 Dimension of arrays:
   k-points           NKPTS =     54   k-points in BZ     NKDIM =     54   number of bands    NBANDS=    225
   number of dos      NEDOS =    301   number of ions     NIONS =     40
   non local maximal  LDIM  =      6   non local SUM 2l+1 LMDIM =     18
   total plane-waves  NPLWV = 190512
   max r-space proj   IRMAX =   2088   max aug-charges    IRDMAX=   8786
   dimension x,y,z NGX =    42 NGY =   42 NGZ =  108
   dimension x,y,z NGXF=    84 NGYF=   84 NGZF=  216
   support grid    NGXF=    84 NGYF=   84 NGZF=  216
   ions per type =              36   2   2
 NGX,Y,Z   is equivalent  to a cutoff of   8.29,  8.29,  8.21 a.u.
 NGXF,Y,Z  is equivalent  to a cutoff of  16.58, 16.58, 16.41 a.u.


 I would recommend the setting:
   dimension x,y,z NGX =    41 NGY =   41 NGZ =  107
 SYSTEM =  unknown system                          
 POSCAR =  Pt  C  H                                

 Startparameter for this run:
   NWRITE =      2    write-flag & timer
   PREC   = normal    normal or accurate (medium, high low for compatibility)
   ISTART =      0    job   : 0-new  1-cont  2-samecut
   ICHARG =      2    charge: 1-file 2-atom 10-const
   ISPIN  =      1    spin polarized calculation?
   LNONCOLLINEAR =      F non collinear calculations
   LSORBIT =      F    spin-orbit coupling
   INIWAV =      1    electr: 0-lowe 1-rand  2-diag
   LASPH  =      F    aspherical Exc in radial PAW
   METAGGA=      F    non-selfconsistent MetaGGA calc.

 Electronic Relaxation 1
   ENCUT  =  400.0 eV  29.40 Ry    5.42 a.u.  13.73 13.73 35.67*2*pi/ulx,y,z
   ENINI  =  400.0     initial cutoff
   ENAUG  =  644.9 eV  augmentation charge cutoff
   NELM   =     60;   NELMIN=  4; NELMDL= -4     # of ELM steps 
   EDIFF  = 0.1E-05   stopping-criterion for ELM
   LREAL  =      T    real-space projection
   NLSPLINE    = F    spline interpolate recip. space projectors
   LCOMPAT=      F    compatible to vasp.4.4
   GGA_COMPAT  = T    GGA compatible to vasp.4.4-vasp.4.6
   LMAXPAW     = -100 max onsite density
   LMAXMIX     =    2 max onsite mixed and CHGCAR
   VOSKOWN=      0    Vosko Wilk Nusair interpolation
   ROPT   =   -0.00050  -0.00050  -0.00050
 Ionic relaxation
   EDIFFG = 0.1E-04   stopping-criterion for IOM
   NSW    =      0    number of steps for IOM
   NBLOCK =      1;   KBLOCK =      1    inner block; outer block 
   IBRION =     -1    ionic relax: 0-MD 1-quasi-New 2-CG
   NFREE  =      0    steps in history (QN), initial steepest desc. (CG)
   ISIF   =      2    stress and relaxation
   IWAVPR =     10    prediction:  0-non 1-charg 2-wave 3-comb
   ISYM   =      2    0-nonsym 1-usesym 2-fastsym
   LCORR  =      T    Harris-Foulkes like correction to forces

   POTIM  = 0.5000    time-step for ionic-motion
   TEIN   =    0.0    initial temperature
   TEBEG  =    0.0;   TEEND  =   0.0 temperature during run
   SMASS  =  -3.00    Nose mass-parameter (am)
   estimated Nose-frequenzy (Omega)   =  0.10E-29 period in steps =****** mass=  -0.162E-26a.u.
   SCALEE = 1.0000    scale energy and forces
   NPACO  =    256;   APACO  = 16.0  distance and # of slots for P.C.
   PSTRESS=    0.0 pullay stress

  Mass of Ions in am
   POMASS = 195.08 12.01  1.00
  Ionic Valenz
   ZVAL   =  10.00  4.00  1.00
  Atomic Wigner-Seitz radii
   RWIGS  =  -1.00 -1.00 -1.00
  virtual crystal weights 
   VCA    =   1.00  1.00  1.00
   NELECT =     370.0000    total number of electrons
   NUPDOWN=      -1.0000    fix difference up-down

 DOS related values:
   EMIN   =  10.00;   EMAX   =-10.00  energy-range for DOS
   EFERMI =   0.00
   ISMEAR =    -1;   SIGMA  =   0.10  broadening in eV -4-tet -1-fermi 0-gaus

 Electronic relaxation 2 (details)
   IALGO  =     68    algorithm
   LDIAG  =      T    sub-space diagonalisation (order eigenvalues)
   LSUBROT=      F    optimize rotation matrix (better conditioning)
   TURBO    =      0    0=normal 1=particle mesh
   IRESTART =      0    0=no restart 2=restart with 2 vectors
   NREBOOT  =      0    no. of reboots
   NMIN     =      0    reboot dimension
   EREF     =   0.00    reference energy to select bands
   IMIX   =      4    mixing-type and parameters
     AMIX     =   0.40;   BMIX     =  1.00
     AMIX_MAG =   1.60;   BMIX_MAG =  1.00
     AMIN     =   0.10
     WC   =   100.;   INIMIX=   1;  MIXPRE=   1;  MAXMIX= -45

 Intra band minimization:
   WEIMIN = 0.0000     energy-eigenvalue tresh-hold
   EBREAK =  0.11E-08  absolut break condition
   DEPER  =   0.30     relativ break condition  

   TIME   =   0.40     timestep for ELM

  volume/ion in A,a.u.               =      33.59       226.69
  Fermi-wavevector in a.u.,A,eV,Ry     =   1.065066  2.012683 15.433976  1.134365
  Thomas-Fermi vector in A             =   2.200605
 
 Write flags
   LWAVE  =      F    write WAVECAR
   LCHARG =      F    write CHGCAR
   LVTOT  =      F    write LOCPOT, total local potential
   LVHAR  =      F    write LOCPOT, Hartree potential only
   LELF   =      F    write electronic localiz. function (ELF)
   LORBIT =      0    0 simple, 1 ext, 2 COOP (PROOUT)


 Dipole corrections
   LMONO  =      F    monopole corrections only (constant potential shift)
   LDIPOL =      F    correct potential (dipole corrections)
   IDIPOL =      0    1-x, 2-y, 3-z, 4-all directions 
   EPSILON=  1.0000000 bulk dielectric constant

 Exchange correlation treatment:
   GGA     =    PE    GGA type
   LEXCH   =     8    internal setting for exchange type
   VOSKOWN=      0    Vosko Wilk Nusair interpolation
   LHFCALC =     F    Hartree Fock is set to
   LHFONE  =     F    Hartree Fock one center treatment
   AEXX    =    0.0000 exact exchange contribution

 Linear response parameters
   LEPSILON=     F    determine dielectric tensor
   LRPA    =     F    only Hartree local field effects (RPA)
   LNABLA  =     F    use nabla operator in PAW spheres
   LVEL    =     F    velocity operator in full k-point grid
   LINTERFAST=   F  fast interpolation
   KINTER  =     0    interpolate to denser k-point grid
   CSHIFT  =0.1000    complex shift for real part using Kramers Kronig
   OMEGAMAX=  -1.0    maximum frequency
   DEG_THRESHOLD= 0.2000000E-02 threshold for treating states as degnerate
   RTIME   =    0.100 relaxation time in fs

 Orbital magnetization related:
   ORBITALMAG=     F  switch on orbital magnetization
   LCHIMAG   =     F  perturbation theory with respect to B field
   DQ        =  0.001000  dq finite difference perturbation B field



--------------------------------------------------------------------------------------------------------


 Static calculation
 charge density and potential will be updated during run
 non-spin polarized calculation
 RMM-DIIS sequential band-by-band and
  variant of blocked Davidson during initial phase
 perform sub-space diagonalisation
    before iterative eigenvector-optimisation
 modified Broyden-mixing scheme, WC =      100.0
 initial mixing is a Kerker type mixing with AMIX =  0.4000 and BMIX =      1.0000
 Hartree-type preconditioning will be used
 using additional bands           40
 real space projection scheme for non local part
 use partial core corrections
 calculate Harris-corrections to forces 
   (improved forces if not selfconsistent)
 use gradient corrections 
 use of overlap-Matrix (Vanderbilt PP)
 Fermi-smearing in eV        SIGMA  =   0.10


--------------------------------------------------------------------------------------------------------


  energy-cutoff  :      400.00
  volume of cell :     1343.68
      direct lattice vectors                 reciprocal lattice vectors
     8.421641764  0.000000000  0.000000000     0.118741693 -0.068555548  0.000000000
     4.210820882  7.293355709  0.000000000     0.000000000  0.137111097  0.000000000
     0.000000000  0.000000000 21.876241706     0.000000000  0.000000000  0.045711691

  length of vectors
     8.421641764  8.421641764 21.876241706     0.137111097  0.137111097  0.045711691


 
 k-points in units of 2pi/SCALE and weight: KPOINTS created by Atomic Simulation Env
   0.00989514  0.00571296  0.00000000       0.019
   0.00000000  0.01142592  0.00000000       0.019
  -0.00989514  0.00571296  0.00000000       0.019
   0.02968542 -0.00571296  0.00000000       0.019
   0.01979028  0.02285185  0.00000000       0.019
  -0.00989514  0.02856481  0.00000000       0.019
   0.01979028 -0.02285185  0.00000000       0.019
  -0.00989514 -0.02856481  0.00000000       0.019
  -0.02968542 -0.00571296  0.00000000       0.019
   0.04947571 -0.01713889  0.00000000       0.019
   0.03958056  0.03427777  0.00000000       0.019
  -0.00989514  0.05141666  0.00000000       0.019
   0.03958056 -0.03427777  0.00000000       0.019
  -0.00989514 -0.05141666  0.00000000       0.019
  -0.04947571 -0.01713889  0.00000000       0.019
  -0.04947571  0.03999074  0.00000000       0.019
   0.05937085 -0.09140740  0.00000000       0.019
  -0.00989514  0.07426851  0.00000000       0.019
   0.05937085 -0.04570370  0.00000000       0.019
  -0.00989514  0.06284259  0.00000000       0.019
   0.04947571  0.03999074  0.00000000       0.019
  -0.02968542  0.02856481  0.00000000       0.019
  -0.03958056 -0.01142592  0.00000000       0.019
  -0.00989514 -0.03999074  0.00000000       0.019
  -0.03958056  0.01142592  0.00000000       0.019
  -0.00989514  0.03999074  0.00000000       0.019
   0.02968542  0.02856481  0.00000000       0.019
  -0.00989514  0.01713889  0.00000000       0.019
  -0.01979028  0.00000000  0.00000000       0.019
  -0.00989514 -0.01713889  0.00000000       0.019
   0.02968542  0.01713889  0.00000000       0.019
   0.00000000  0.03427777  0.00000000       0.019
  -0.02968542  0.01713889  0.00000000       0.019
   0.04947571  0.00571296  0.00000000       0.019
   0.01979028  0.04570370  0.00000000       0.019
  -0.02968542  0.03999074  0.00000000       0.019
   0.01979028 -0.04570370  0.00000000       0.019
  -0.02968542 -0.03999074  0.00000000       0.019
  -0.04947571  0.00571296  0.00000000       0.019
  -0.04947571  0.06284259  0.00000000       0.019
   0.03958056 -0.07998147  0.00000000       0.019
  -0.02968542  0.06284259  0.00000000       0.019
   0.03958056 -0.05712962  0.00000000       0.019
  -0.02968542  0.07426851  0.00000000       0.019
   0.04947571 -0.07426851  0.00000000       0.019
  -0.02968542  0.05141666  0.00000000       0.019
   0.05937085 -0.06855555  0.00000000       0.019
  -0.02968542  0.08569444  0.00000000       0.019
   0.04947571  0.02856481  0.00000000       0.019
   0.00000000  0.05712962  0.00000000       0.019
  -0.04947571  0.02856481  0.00000000       0.019
  -0.04947571  0.08569444  0.00000000       0.019
   0.01979028 -0.06855555  0.00000000       0.019
  -0.04947571  0.05141666  0.00000000       0.019
 
 k-points in reciprocal lattice and weights: KPOINTS created by Atomic Simulation Env
   0.08333333  0.08333333  0.00000000       0.019
   0.00000000  0.08333333  0.00000000       0.019
  -0.08333333  0.00000000  0.00000000       0.019
   0.25000000  0.08333333  0.00000000       0.019
   0.16666667  0.25000000  0.00000000       0.019
  -0.08333333  0.16666667  0.00000000       0.019
   0.16666667 -0.08333333  0.00000000       0.019
  -0.08333333 -0.25000000  0.00000000       0.019
  -0.25000000 -0.16666667  0.00000000       0.019
   0.41666667  0.08333333  0.00000000       0.019
   0.33333333  0.41666667  0.00000000       0.019
  -0.08333333  0.33333333  0.00000000       0.019
   0.33333333 -0.08333333  0.00000000       0.019
  -0.08333333 -0.41666667  0.00000000       0.019
  -0.41666667 -0.33333333  0.00000000       0.019
  -0.41666667  0.08333333  0.00000000       0.019
   0.50000000 -0.41666667  0.00000000       0.019
  -0.08333333  0.50000000  0.00000000       0.019
   0.50000000 -0.08333333  0.00000000       0.019
  -0.08333333  0.41666667  0.00000000       0.019
   0.41666667  0.50000000  0.00000000       0.019
  -0.25000000  0.08333333  0.00000000       0.019
  -0.33333333 -0.25000000  0.00000000       0.019
  -0.08333333 -0.33333333  0.00000000       0.019
  -0.33333333 -0.08333333  0.00000000       0.019
  -0.08333333  0.25000000  0.00000000       0.019
   0.25000000  0.33333333  0.00000000       0.019
  -0.08333333  0.08333333  0.00000000       0.019
  -0.16666667 -0.08333333  0.00000000       0.019
  -0.08333333 -0.16666667  0.00000000       0.019
   0.25000000  0.25000000  0.00000000       0.019
   0.00000000  0.25000000  0.00000000       0.019
  -0.25000000  0.00000000  0.00000000       0.019
   0.41666667  0.25000000  0.00000000       0.019
   0.16666667  0.41666667  0.00000000       0.019
  -0.25000000  0.16666667  0.00000000       0.019
   0.16666667 -0.25000000  0.00000000       0.019
  -0.25000000 -0.41666667  0.00000000       0.019
  -0.41666667 -0.16666667  0.00000000       0.019
  -0.41666667  0.25000000  0.00000000       0.019
   0.33333333 -0.41666667  0.00000000       0.019
  -0.25000000  0.33333333  0.00000000       0.019
   0.33333333 -0.25000000  0.00000000       0.019
  -0.25000000  0.41666667  0.00000000       0.019
   0.41666667 -0.33333333  0.00000000       0.019
  -0.25000000  0.25000000  0.00000000       0.019
   0.50000000 -0.25000000  0.00000000       0.019
  -0.25000000  0.50000000  0.00000000       0.019
   0.41666667  0.41666667  0.00000000       0.019
   0.00000000  0.41666667  0.00000000       0.019
  -0.41666667 -0.00000000  0.00000000       0.019
  -0.41666667  0.41666667  0.00000000       0.019
   0.16666667 -0.41666667  0.00000000       0.019
  -0.41666667  0.16666667  0.00000000       0.019
 
 position of ions in fractional coordinates (direct lattice) 
   0.00000000  0.00000000  0.34283768
   0.33333333  0.00000000  0.34283768
   0.66666667  0.00000000  0.34283768
   0.00000000  0.33333333  0.34283768
   0.33333333  0.33333333  0.34283768
   0.66666667  0.33333333  0.34283768
   0.00000000  0.66666667  0.34283768
   0.33333333  0.66666667  0.34283768
   0.66666667  0.66666667  0.34283768
   0.11111111  0.11111111  0.44761256
   0.44444444  0.11111111  0.44761256
   0.77777778  0.11111111  0.44761256
   0.11111111  0.44444444  0.44761256
   0.44444444  0.44444444  0.44761256
   0.77777778  0.44444444  0.44761256
   0.11111111  0.77777778  0.44761256
   0.44444444  0.77777778  0.44761256
   0.77777778  0.77777778  0.44761256
   0.88425364  0.22442670  0.55244905
   0.22037514  0.22537740  0.55266231
   0.55356433  0.22256263  0.55214259
   0.88614075  0.55637661  0.55115934
   0.22071967  0.55288914  0.55271045
   0.55416527  0.55477803  0.55170179
   0.88441851  0.88981885  0.55244345
   0.21879337  0.89011458  0.54957939
   0.55388861  0.89006082  0.55182025
   0.99833368  0.99918677  0.65626679
   0.32511129  0.99781399  0.65508055
   0.66841930  0.99401135  0.66103307
   0.99469208  0.33491963  0.65670818
   0.32407926  0.33653634  0.66334966
   0.66801121  0.33416489  0.66094572
   0.99526763  0.66743977  0.65682033
   0.32578457  0.67482079  0.65503296
   0.66275092  0.66707916  0.65653655
   0.52115895  0.15417498  0.73126460
   0.52154469  0.32035839  0.73128174
   0.47978989  0.09962517  0.76967703
   0.48082207  0.41613406  0.76969475
 
 position of ions in cartesian coordinates  (Angst):
   0.00000000  0.00000000  7.50000000
   2.80721392  0.00000000  7.50000000
   5.61442784  0.00000000  7.50000000
   1.40360696  2.43111857  7.50000000
   4.21082088  2.43111857  7.50000000
   7.01803480  2.43111857  7.50000000
   2.80721392  4.86223714  7.50000000
   5.61442784  4.86223714  7.50000000
   8.42164176  4.86223714  7.50000000
   1.40360696  0.81037286  9.79208057
   4.21082088  0.81037286  9.79208057
   7.01803480  0.81037286  9.79208057
   2.80721392  3.24149143  9.79208057
   5.61442784  3.24149143  9.79208057
   8.42164176  3.24149143  9.79208057
   4.21082088  5.67261000  9.79208057
   7.01803480  5.67261000  9.79208057
   9.82524872  5.67261000  9.79208057
   8.39188801  1.63682378 12.08550898
   2.80494431  1.64375755 12.09017417
   5.59909185  1.62322842 12.07880469
   9.80556221  4.05785250 12.05729484
   4.18693913  4.03241716 12.09122730
   7.00305229  4.04619353 12.06916162
  11.19512361  6.48976537 12.08538649
   5.59071246  6.49192225 12.02273168
   8.41253813  6.49153018 12.07175327
  12.61500510  7.28742451 14.35665086
   6.93958679  7.27741234 14.33070054
   9.81479163  7.24967835 14.46091921
   9.78722694  2.44268800 14.36630684
   4.14637368  2.45447925 14.51159760
   7.03285964  2.43718344 14.45900842
  11.19225681  4.86787568 14.36876035
   5.58519045  4.92170807 14.32965944
   8.39040167  4.86524560 14.36255232
   5.03821724  1.12445298 15.99732107
   5.74123435  2.33648767 15.99769607
   4.46012231  0.72660184 16.83764066
   5.80157725  3.03501376 16.83802834
 


--------------------------------------------------------------------------------------------------------


 k-point  1 :   0.0833 0.0833 0.0000  plane waves:   24413
 k-point  2 :   0.0000 0.0833 0.0000  plane waves:   24413
 k-point  3 :  -0.0833 0.0000 0.0000  plane waves:   24413
 k-point  4 :   0.2500 0.0833 0.0000  plane waves:   24407
 k-point  5 :   0.1667 0.2500 0.0000  plane waves:   24407
 k-point  6 :  -0.0833 0.1667 0.0000  plane waves:   24407
 k-point  7 :   0.1667-0.0833 0.0000  plane waves:   24407
 k-point  8 :  -0.0833-0.2500 0.0000  plane waves:   24407
 k-point  9 :  -0.2500-0.1667 0.0000  plane waves:   24407
 k-point 10 :   0.4167 0.0833 0.0000  plane waves:   24416
 k-point 11 :   0.3333 0.4167 0.0000  plane waves:   24416
 k-point 12 :  -0.0833 0.3333 0.0000  plane waves:   24416
 k-point 13 :   0.3333-0.0833 0.0000  plane waves:   24416
 k-point 14 :  -0.0833-0.4167 0.0000  plane waves:   24416
 k-point 15 :  -0.4167-0.3333 0.0000  plane waves:   24416
 k-point 16 :  -0.4167 0.0833 0.0000  plane waves:   24418
 k-point 17 :   0.5000-0.4167 0.0000  plane waves:   24418
 k-point 18 :  -0.0833 0.5000 0.0000  plane waves:   24418
 k-point 19 :   0.5000-0.0833 0.0000  plane waves:   24418
 k-point 20 :  -0.0833 0.4167 0.0000  plane waves:   24418
 k-point 21 :   0.4167 0.5000 0.0000  plane waves:   24418
 k-point 22 :  -0.2500 0.0833 0.0000  plane waves:   24416
 k-point 23 :  -0.3333-0.2500 0.0000  plane waves:   24416
 k-point 24 :  -0.0833-0.3333 0.0000  plane waves:   24416
 k-point 25 :  -0.3333-0.0833 0.0000  plane waves:   24416
 k-point 26 :  -0.0833 0.2500 0.0000  plane waves:   24416
 k-point 27 :   0.2500 0.3333 0.0000  plane waves:   24416
 k-point 28 :  -0.0833 0.0833 0.0000  plane waves:   24411
 k-point 29 :  -0.1667-0.0833 0.0000  plane waves:   24411
 k-point 30 :  -0.0833-0.1667 0.0000  plane waves:   24411
 k-point 31 :   0.2500 0.2500 0.0000  plane waves:   24440
 k-point 32 :   0.0000 0.2500 0.0000  plane waves:   24440
 k-point 33 :  -0.2500 0.0000 0.0000  plane waves:   24440
 k-point 34 :   0.4167 0.2500 0.0000  plane waves:   24406
 k-point 35 :   0.1667 0.4167 0.0000  plane waves:   24406
 k-point 36 :  -0.2500 0.1667 0.0000  plane waves:   24406
 k-point 37 :   0.1667-0.2500 0.0000  plane waves:   24406
 k-point 38 :  -0.2500-0.4167 0.0000  plane waves:   24406
 k-point 39 :  -0.4167-0.1667 0.0000  plane waves:   24406
 k-point 40 :  -0.4167 0.2500 0.0000  plane waves:   24402
 k-point 41 :   0.3333-0.4167 0.0000  plane waves:   24402
 k-point 42 :  -0.2500 0.3333 0.0000  plane waves:   24402
 k-point 43 :   0.3333-0.2500 0.0000  plane waves:   24402
 k-point 44 :  -0.2500 0.4167 0.0000  plane waves:   24402
 k-point 45 :   0.4167-0.3333 0.0000  plane waves:   24402
 k-point 46 :  -0.2500 0.2500 0.0000  plane waves:   24390
 k-point 47 :   0.5000-0.2500 0.0000  plane waves:   24390
 k-point 48 :  -0.2500 0.5000 0.0000  plane waves:   24390
 k-point 49 :   0.4167 0.4167 0.0000  plane waves:   24430
 k-point 50 :   0.0000 0.4167 0.0000  plane waves:   24430
 k-point 51 :  -0.4167-0.0000 0.0000  plane waves:   24430
 k-point 52 :  -0.4167 0.4167 0.0000  plane waves:   24404
 k-point 53 :   0.1667-0.4167 0.0000  plane waves:   24404
 k-point 54 :  -0.4167 0.1667 0.0000  plane waves:   24404

 maximum and minimum number of plane-waves per node :      6146     6048

 maximum number of plane-waves:     24440
 maximum index in each direction: 
   IXMAX=   14   IYMAX=   14   IZMAX=   35
   IXMIN=  -14   IYMIN=  -14   IZMIN=  -35

 WARNING: aliasing errors must be expected set NGX to  58 to avoid them
 WARNING: aliasing errors must be expected set NGY to  58 to avoid them
 WARNING: aliasing errors must be expected set NGZ to 142 to avoid them
 aliasing errors are usually negligible using standard VASP settings
 and one can safely disregard these warnings

 real space projection operators:
  total allocation   :      10250.16 KBytes
  max/ min on nodes  :       2702.87       2446.72


 parallel 3D FFT for wavefunctions:
    minimum data exchange during FFTs selected (reduces bandwidth)
 parallel 3D FFT for charge:
    minimum data exchange during FFTs selected (reduces bandwidth)


 total amount of memory used by VASP on root node   291975. kBytes
========================================================================

   base      :      30000. kBytes
   nonlr-proj:       4725. kBytes
   fftplans  :       4497. kBytes
   grid      :       7849. kBytes
   one-center:        155. kBytes
   wavefun   :     244749. kBytes
 
     INWAV:  cpu time    0.0000: real time    0.0000
 Broyden mixing: mesh for mixing (old mesh)
   NGX = 27   NGY = 27   NGZ = 71
  (NGX  = 84   NGY  = 84   NGZ  =216)
  gives a total of  51759 points

 initial charge density was supplied:
 charge density of overlapping atoms calculated
 number of electron     370.0000000 magnetization 
 keeping initial charge density in first step


--------------------------------------------------------------------------------------------------------


 Maximum index for non-local projection operator          595
 Maximum index for augmentation-charges          868 (set IRDMAX)


--------------------------------------------------------------------------------------------------------


 First call to EWALD:  gamma=   0.161
 Maximum number of real-space cells 4x 4x 2
 Maximum number of reciprocal cells 2x 2x 5

 FEWALD executed in parallel
    FEWALD:  cpu time    0.0030: real time    0.0036


----------------------------------------- Iteration    1(   1)  ---------------------------------------


    POTLOK:  cpu time    1.5238: real time    1.5238
    SETDIJ:  cpu time    0.1440: real time    0.1431
     EDDAV:  cpu time  103.3453: real time  103.6779
       DOS:  cpu time    0.0020: real time    0.0027
    --------------------------------------------
      LOOP:  cpu time  105.0170: real time  105.3599

 eigenvalue-minimisations  : 24330
 total energy-change (2. order) : 0.2202331E+04  (-0.1465842E+05)
 number of electron     370.0000000 magnetization 
 augmentation part      370.0000000 magnetization 

 Free energy of the ion-electron system (eV)
  ---------------------------------------------------
  alpha Z        PSCENC =       954.96919766
  Ewald energy   TEWEN  =     92647.82918553
  -Hartree energ DENC   =   -121066.15765103
  -exchange      EXHF   =         0.00000000
  -V(xc)+E(xc)   XCENC  =       152.47826249
  PAW double counting   =     25281.75942305   -24264.71933415
  entropy T*S    EENTRO =        -0.56740522
  eigenvalues    EBANDS =      1929.49708805
  atomic energy  EATOM  =     26567.24197818
  Solvation  Ediel_sol  =         0.00000000
  ---------------------------------------------------
  free energy    TOTEN  =      2202.33074455 eV

  energy without entropy =     2202.89814977  energy(sigma->0) =     2202.61444716


--------------------------------------------------------------------------------------------------------




----------------------------------------- Iteration    1(   2)  ---------------------------------------


     EDDAV:  cpu time  115.3885: real time  115.5313
       DOS:  cpu time    0.0040: real time    0.0033
    --------------------------------------------
      LOOP:  cpu time  115.3945: real time  115.5921

 eigenvalue-minimisations  : 28380
 total energy-change (2. order) :-0.2290217E+04  (-0.2117413E+04)
 number of electron     370.0000000 magnetization 
 augmentation part      370.0000000 magnetization 

 Free energy of the ion-electron system (eV)
  ---------------------------------------------------
  alpha Z        PSCENC =       954.96919766
  Ewald energy   TEWEN  =     92647.82918553
  -Hartree energ DENC   =   -121066.15765103
  -exchange      EXHF   =         0.00000000
  -V(xc)+E(xc)   XCENC  =       152.47826249
  PAW double counting   =     25281.75942305   -24264.71933415
  entropy T*S    EENTRO =        -1.11394841
  eigenvalues    EBANDS =      -360.17386628
  atomic energy  EATOM  =     26567.24197818
  Solvation  Ediel_sol  =         0.00000000
  ---------------------------------------------------
  free energy    TOTEN  =       -87.88675296 eV

  energy without entropy =      -86.77280456  energy(sigma->0) =      -87.32977876


--------------------------------------------------------------------------------------------------------




----------------------------------------- Iteration    1(   3)  ---------------------------------------


     EDDAV:  cpu time  118.0491: real time  118.7351
       DOS:  cpu time    0.0040: real time    0.0038
    --------------------------------------------
      LOOP:  cpu time  118.0541: real time  118.7533

 eigenvalue-minimisations  : 29060
 total energy-change (2. order) :-0.1577723E+03  (-0.1430955E+03)
 number of electron     370.0000000 magnetization 
 augmentation part      370.0000000 magnetization 

 Free energy of the ion-electron system (eV)
  ---------------------------------------------------
  alpha Z        PSCENC =       954.96919766
  Ewald energy   TEWEN  =     92647.82918553
  -Hartree energ DENC   =   -121066.15765103
  -exchange      EXHF   =         0.00000000
  -V(xc)+E(xc)   XCENC  =       152.47826249
  PAW double counting   =     25281.75942305   -24264.71933415
  entropy T*S    EENTRO =        -1.88610831
  eigenvalues    EBANDS =      -517.17400573
  atomic energy  EATOM  =     26567.24197818
  Solvation  Ediel_sol  =         0.00000000
  ---------------------------------------------------
  free energy    TOTEN  =      -245.65905232 eV

  energy without entropy =     -243.77294401  energy(sigma->0) =     -244.71599817


--------------------------------------------------------------------------------------------------------




----------------------------------------- Iteration    1(   4)  ---------------------------------------


     EDDAV:  cpu time  123.8142: real time  123.7845
       DOS:  cpu time    0.0040: real time    0.0039
    CHARGE:  cpu time    2.5146: real time    2.5128
    MIXING:  cpu time    0.0030: real time    0.0026
    --------------------------------------------
      LOOP:  cpu time  126.3368: real time  126.3879

 eigenvalue-minimisations  : 31110
 total energy-change (2. order) :-0.6815082E+01  (-0.6602024E+01)
 number of electron     370.0000007 magnetization 
 augmentation part      104.6065749 magnetization 

 Broyden mixing:
  rms(total) = 0.64306E+01    rms(broyden)= 0.64305E+01
  rms(prec ) = 0.65502E+01
  weight for this iteration     100.00

 Free energy of the ion-electron system (eV)
  ---------------------------------------------------
  alpha Z        PSCENC =       954.96919766
  Ewald energy   TEWEN  =     92647.82918553
  -Hartree energ DENC   =   -121066.15765103
  -exchange      EXHF   =         0.00000000
  -V(xc)+E(xc)   XCENC  =       152.47826249
  PAW double counting   =     25281.75942305   -24264.71933415
  entropy T*S    EENTRO =        -1.93439571
  eigenvalues    EBANDS =      -523.94080050
  atomic energy  EATOM  =     26567.24197818
  Solvation  Ediel_sol  =         0.00000000
  ---------------------------------------------------
  free energy    TOTEN  =      -252.47413450 eV

  energy without entropy =     -250.53973878  energy(sigma->0) =     -251.50693664


--------------------------------------------------------------------------------------------------------




----------------------------------------- Iteration    1(   5)  ---------------------------------------


    POTLOK:  cpu time    0.2080: real time    0.2630
    SETDIJ:  cpu time    0.0080: real time    0.0083
    EDDIAG:  cpu time   13.9689: real time   13.9685
  RMM-DIIS:  cpu time   45.4951: real time   45.5933
    ORTHCH:  cpu time    3.6624: real time    3.7519
       DOS:  cpu time    0.0040: real time    0.0038
    CHARGE:  cpu time    2.4126: real time    2.4717
    MIXING:  cpu time    0.0030: real time    0.0026
    --------------------------------------------
      LOOP:  cpu time   65.7640: real time   66.1455

 eigenvalue-minimisations  : 25723
 total energy-change (2. order) : 0.1183784E+02  (-0.5576425E+01)
 number of electron     370.0000037 magnetization 
 augmentation part      111.3876866 magnetization 

 Broyden mixing:
  rms(total) = 0.43524E+01    rms(broyden)= 0.43523E+01
  rms(prec ) = 0.46557E+01
  weight for this iteration     100.00

 eigenvalues of (default mixing * dielectric matrix)
  average eigenvalue GAMMA=   1.3082
  1.3082

 Free energy of the ion-electron system (eV)
  ---------------------------------------------------
  alpha Z        PSCENC =       954.96919766
  Ewald energy   TEWEN  =     92647.82918553
  -Hartree energ DENC   =   -120635.71589770
  -exchange      EXHF   =         0.00000000
  -V(xc)+E(xc)   XCENC  =       143.92076382
  PAW double counting   =     28092.57030222   -27128.72206160
  entropy T*S    EENTRO =        -1.96461377
  eigenvalues    EBANDS =      -880.76514401
  atomic energy  EATOM  =     26567.24197818
  Solvation  Ediel_sol  =         0.00000000
  ---------------------------------------------------
  free energy    TOTEN  =      -240.63628967 eV

  energy without entropy =     -238.67167590  energy(sigma->0) =     -239.65398279


--------------------------------------------------------------------------------------------------------




----------------------------------------- Iteration    1(   6)  ---------------------------------------


    POTLOK:  cpu time    0.6489: real time    0.6494
    SETDIJ:  cpu time    0.0090: real time    0.0084
    EDDIAG:  cpu time   13.5989: real time   13.6956
  RMM-DIIS:  cpu time   45.6861: real time   46.3029
    ORTHCH:  cpu time    3.4745: real time    3.5137
       DOS:  cpu time    0.0040: real time    0.0036
    CHARGE:  cpu time    2.4886: real time    2.4870
    MIXING:  cpu time    0.0020: real time    0.0027
    --------------------------------------------
      LOOP:  cpu time   65.9140: real time   66.6872

 eigenvalue-minimisations  : 26091
 total energy-change (2. order) :-0.4627190E+02  (-0.7738040E+01)
 number of electron     369.9999985 magnetization 
 augmentation part      109.1087825 magnetization 

 Broyden mixing:
  rms(total) = 0.57450E+01    rms(broyden)= 0.57449E+01
  rms(prec ) = 0.72111E+01
  weight for this iteration     100.00

 eigenvalues of (default mixing * dielectric matrix)
  average eigenvalue GAMMA=   1.0871
  1.9017  0.2725

 Free energy of the ion-electron system (eV)
  ---------------------------------------------------
  alpha Z        PSCENC =       954.96919766
  Ewald energy   TEWEN  =     92647.82918553
  -Hartree energ DENC   =   -120956.75555466
  -exchange      EXHF   =         0.00000000
  -V(xc)+E(xc)   XCENC  =       141.59353173
  PAW double counting   =     30098.19508744   -29154.58999295
  entropy T*S    EENTRO =        -1.18328535
  eigenvalues    EBANDS =      -584.20834082
  atomic energy  EATOM  =     26567.24197818
  Solvation  Ediel_sol  =         0.00000000
  ---------------------------------------------------
  free energy    TOTEN  =      -286.90819324 eV

  energy without entropy =     -285.72490790  energy(sigma->0) =     -286.31655057


--------------------------------------------------------------------------------------------------------




----------------------------------------- Iteration    1(   7)  ---------------------------------------


    POTLOK:  cpu time    0.4089: real time    0.4782
    SETDIJ:  cpu time    0.0080: real time    0.0084
    EDDIAG:  cpu time   13.8049: real time   13.7955
  RMM-DIIS:  cpu time   44.3143: real time   44.6698
    ORTHCH:  cpu time    3.3645: real time    3.3941
       DOS:  cpu time    0.0030: real time    0.0036
    CHARGE:  cpu time    2.5066: real time    2.5050
    MIXING:  cpu time    0.0030: real time    0.0028
    --------------------------------------------
      LOOP:  cpu time   64.4152: real time   64.9580

 eigenvalue-minimisations  : 25296
 total energy-change (2. order) : 0.3952672E+02  (-0.3158173E+01)
 number of electron     369.9999990 magnetization 
 augmentation part      112.0239529 magnetization 

 Broyden mixing:
  rms(total) = 0.31743E+01    rms(broyden)= 0.31742E+01
  rms(prec ) = 0.40849E+01
  weight for this iteration     100.00

 eigenvalues of (default mixing * dielectric matrix)
  average eigenvalue GAMMA=   0.8956
  2.0262  0.3303  0.3303

 Free energy of the ion-electron system (eV)
  ---------------------------------------------------
  alpha Z        PSCENC =       954.96919766
  Ewald energy   TEWEN  =     92647.82918553
  -Hartree energ DENC   =   -120742.32938777
  -exchange      EXHF   =         0.00000000
  -V(xc)+E(xc)   XCENC  =       140.16608938
  PAW double counting   =     31713.36653461   -30790.15256307
  entropy T*S    EENTRO =        -1.55199149
  eigenvalues    EBANDS =      -736.92051148
  atomic energy  EATOM  =     26567.24197818
  Solvation  Ediel_sol  =         0.00000000
  ---------------------------------------------------
  free energy    TOTEN  =      -247.38146845 eV

  energy without entropy =     -245.82947697  energy(sigma->0) =     -246.60547271


--------------------------------------------------------------------------------------------------------




----------------------------------------- Iteration    1(   8)  ---------------------------------------


    POTLOK:  cpu time    0.1030: real time    0.1035
    SETDIJ:  cpu time    0.0090: real time    0.0084
    EDDIAG:  cpu time   13.7529: real time   13.7538
  RMM-DIIS:  cpu time   45.2271: real time   45.6072
    ORTHCH:  cpu time    3.3755: real time    3.4409
       DOS:  cpu time    0.0030: real time    0.0034
    CHARGE:  cpu time    2.4826: real time    2.5193
    MIXING:  cpu time    0.0030: real time    0.0030
    --------------------------------------------
      LOOP:  cpu time   64.9571: real time   65.4961

 eigenvalue-minimisations  : 25722
 total energy-change (2. order) :-0.3911749E+00  (-0.2130593E+01)
 number of electron     370.0000009 magnetization 
 augmentation part      112.4171126 magnetization 

 Broyden mixing:
  rms(total) = 0.32408E+01    rms(broyden)= 0.32406E+01
  rms(prec ) = 0.49962E+01
  weight for this iteration     100.00

 eigenvalues of (default mixing * dielectric matrix)
  average eigenvalue GAMMA=   0.8455
  2.1866  0.7344  0.2972  0.1638

 Free energy of the ion-electron system (eV)
  ---------------------------------------------------
  alpha Z        PSCENC =       954.96919766
  Ewald energy   TEWEN  =     92647.82918553
  -Hartree energ DENC   =   -120680.27300779
  -exchange      EXHF   =         0.00000000
  -V(xc)+E(xc)   XCENC  =       140.35974797
  PAW double counting   =     32094.92717326   -31175.25735069
  entropy T*S    EENTRO =        -1.35944336
  eigenvalues    EBANDS =      -796.21012414
  atomic energy  EATOM  =     26567.24197818
  Solvation  Ediel_sol  =         0.00000000
  ---------------------------------------------------
  free energy    TOTEN  =      -247.77264337 eV

  energy without entropy =     -246.41320002  energy(sigma->0) =     -247.09292169


--------------------------------------------------------------------------------------------------------




----------------------------------------- Iteration    1(   9)  ---------------------------------------


    POTLOK:  cpu time    0.7379: real time    0.8777
    SETDIJ:  cpu time    0.0090: real time    0.0084
    EDDIAG:  cpu time   15.1877: real time   15.1769
  RMM-DIIS:  cpu time   45.3991: real time   45.6688
    ORTHCH:  cpu time    3.4955: real time    3.5045
       DOS:  cpu time    0.0040: real time    0.0035
    CHARGE:  cpu time    2.4616: real time    2.4592
    MIXING:  cpu time    0.0030: real time    0.0031
    --------------------------------------------
      LOOP:  cpu time   67.2988: real time   67.7766

 eigenvalue-minimisations  : 25943
 total energy-change (2. order) : 0.2653994E+01  (-0.1355179E+01)
 number of electron     370.0000037 magnetization 
 augmentation part      112.0850476 magnetization 

 Broyden mixing:
  rms(total) = 0.29454E+01    rms(broyden)= 0.29453E+01
  rms(prec ) = 0.39726E+01
  weight for this iteration     100.00

 eigenvalues of (default mixing * dielectric matrix)
  average eigenvalue GAMMA=   0.7850
  2.3642  0.9099  0.2628  0.2628  0.1254

 Free energy of the ion-electron system (eV)
  ---------------------------------------------------
  alpha Z        PSCENC =       954.96919766
  Ewald energy   TEWEN  =     92647.82918553
  -Hartree energ DENC   =   -120707.33669519
  -exchange      EXHF   =         0.00000000
  -V(xc)+E(xc)   XCENC  =       140.64082916
  PAW double counting   =     32410.40849349   -31492.62325305
  entropy T*S    EENTRO =        -1.87331852
  eigenvalues    EBANDS =      -764.37506670
  atomic energy  EATOM  =     26567.24197818
  Solvation  Ediel_sol  =         0.00000000
  ---------------------------------------------------
  free energy    TOTEN  =      -245.11864944 eV

  energy without entropy =     -243.24533092  energy(sigma->0) =     -244.18199018


--------------------------------------------------------------------------------------------------------




----------------------------------------- Iteration    1(  10)  ---------------------------------------


    POTLOK:  cpu time    0.0700: real time    0.0700
    SETDIJ:  cpu time    0.0080: real time    0.0082
    EDDIAG:  cpu time   13.8059: real time   13.7966
  RMM-DIIS:  cpu time   44.1353: real time   44.4018
    ORTHCH:  cpu time    3.5385: real time    3.5529
       DOS:  cpu time    0.0030: real time    0.0038
    CHARGE:  cpu time    2.4956: real time    2.4932
    MIXING:  cpu time    0.0030: real time    0.0032
    --------------------------------------------
      LOOP:  cpu time   64.0623: real time   64.3438

 eigenvalue-minimisations  : 25103
 total energy-change (2. order) : 0.9662219E+01  (-0.3323691E+00)
 number of electron     370.0000022 magnetization 
 augmentation part      112.2813975 magnetization 

 Broyden mixing:
  rms(total) = 0.98688E+00    rms(broyden)= 0.98681E+00
  rms(prec ) = 0.10902E+01
  weight for this iteration     100.00

 eigenvalues of (default mixing * dielectric matrix)
  average eigenvalue GAMMA=   0.7289
  2.1309  0.8419  0.6738  0.3013  0.3013  0.1239

 Free energy of the ion-electron system (eV)
  ---------------------------------------------------
  alpha Z        PSCENC =       954.96919766
  Ewald energy   TEWEN  =     92647.82918553
  -Hartree energ DENC   =   -120717.32893995
  -exchange      EXHF   =         0.00000000
  -V(xc)+E(xc)   XCENC  =       140.73379885
  PAW double counting   =     32755.42215112   -31840.76367907
  entropy T*S    EENTRO =        -2.01754927
  eigenvalues    EBANDS =      -741.54257357
  atomic energy  EATOM  =     26567.24197818
  Solvation  Ediel_sol  =         0.00000000
  ---------------------------------------------------
  free energy    TOTEN  =      -235.45643053 eV

  energy without entropy =     -233.43888126  energy(sigma->0) =     -234.44765589


--------------------------------------------------------------------------------------------------------




----------------------------------------- Iteration    1(  11)  ---------------------------------------


    POTLOK:  cpu time    1.3798: real time    1.3792
    SETDIJ:  cpu time    0.0080: real time    0.0082
    EDDIAG:  cpu time   13.4170: real time   13.5873
  RMM-DIIS:  cpu time   45.9490: real time   46.4621
    ORTHCH:  cpu time    3.5515: real time    3.5895
       DOS:  cpu time    0.0040: real time    0.0039
    CHARGE:  cpu time    2.3916: real time    2.3900
    MIXING:  cpu time    0.0040: real time    0.0034
    --------------------------------------------
      LOOP:  cpu time   66.7069: real time   67.4659

 eigenvalue-minimisations  : 25715
 total energy-change (2. order) : 0.1709199E+00  (-0.1515468E+00)
 number of electron     370.0000024 magnetization 
 augmentation part      112.2030272 magnetization 

 Broyden mixing:
  rms(total) = 0.86660E+00    rms(broyden)= 0.86656E+00
  rms(prec ) = 0.10732E+01
  weight for this iteration     100.00

 eigenvalues of (default mixing * dielectric matrix)
  average eigenvalue GAMMA=   0.6887
  2.1133  0.8964  0.5730  0.5730  0.2710  0.2710  0.1234

 Free energy of the ion-electron system (eV)
  ---------------------------------------------------
  alpha Z        PSCENC =       954.96919766
  Ewald energy   TEWEN  =     92647.82918553
  -Hartree energ DENC   =   -120716.10773593
  -exchange      EXHF   =         0.00000000
  -V(xc)+E(xc)   XCENC  =       141.06636458
  PAW double counting   =     32552.13606884   -31634.82962346
  entropy T*S    EENTRO =        -2.08277899
  eigenvalues    EBANDS =      -745.50816701
  atomic energy  EATOM  =     26567.24197818
  Solvation  Ediel_sol  =         0.00000000
  ---------------------------------------------------
  free energy    TOTEN  =      -235.28551060 eV

  energy without entropy =     -233.20273162  energy(sigma->0) =     -234.24412111


--------------------------------------------------------------------------------------------------------




----------------------------------------- Iteration    1(  12)  ---------------------------------------


    POTLOK:  cpu time    0.4529: real time    0.4520
    SETDIJ:  cpu time    0.0080: real time    0.0082
    EDDIAG:  cpu time   13.4969: real time   13.6052
  RMM-DIIS:  cpu time   44.8922: real time   45.0899
    ORTHCH:  cpu time    3.4585: real time    3.4857
       DOS:  cpu time    0.0040: real time    0.0041
    CHARGE:  cpu time    2.3506: real time    2.3480
    MIXING:  cpu time    0.0040: real time    0.0036
    --------------------------------------------
      LOOP:  cpu time   64.6672: real time   65.0301

 eigenvalue-minimisations  : 25511
 total energy-change (2. order) : 0.4725053E+00  (-0.6298680E-01)
 number of electron     370.0000021 magnetization 
 augmentation part      112.1318168 magnetization 

 Broyden mixing:
  rms(total) = 0.48755E+00    rms(broyden)= 0.48752E+00
  rms(prec ) = 0.58639E+00
  weight for this iteration     100.00

 eigenvalues of (default mixing * dielectric matrix)
  average eigenvalue GAMMA=   0.7201
  2.2048  0.9217  0.8419  0.8419  0.2877  0.2877  0.1234  0.2516

 Free energy of the ion-electron system (eV)
  ---------------------------------------------------
  alpha Z        PSCENC =       954.96919766
  Ewald energy   TEWEN  =     92647.82918553
  -Hartree energ DENC   =   -120725.36832041
  -exchange      EXHF   =         0.00000000
  -V(xc)+E(xc)   XCENC  =       141.12427636
  PAW double counting   =     32532.48854065   -31614.91453437
  entropy T*S    EENTRO =        -2.07704475
  eigenvalues    EBANDS =      -736.10628414
  atomic energy  EATOM  =     26567.24197818
  Solvation  Ediel_sol  =         0.00000000
  ---------------------------------------------------
  free energy    TOTEN  =      -234.81300529 eV

  energy without entropy =     -232.73596054  energy(sigma->0) =     -233.77448292


--------------------------------------------------------------------------------------------------------




----------------------------------------- Iteration    1(  13)  ---------------------------------------


    POTLOK:  cpu time    0.6989: real time    0.6987
    SETDIJ:  cpu time    0.0090: real time    0.0083
    EDDIAG:  cpu time   13.7049: real time   13.6997
  RMM-DIIS:  cpu time   46.3979: real time   46.3813
    ORTHCH:  cpu time    3.4475: real time    3.4764
       DOS:  cpu time    0.0040: real time    0.0039
    CHARGE:  cpu time    2.3756: real time    2.3751
    MIXING:  cpu time    0.0040: real time    0.0040
    --------------------------------------------
      LOOP:  cpu time   66.6439: real time   66.6848

 eigenvalue-minimisations  : 25982
 total energy-change (2. order) : 0.1014361E+00  (-0.3348690E-01)
 number of electron     370.0000013 magnetization 
 augmentation part      112.0898816 magnetization 

 Broyden mixing:
  rms(total) = 0.30523E+00    rms(broyden)= 0.30519E+00
  rms(prec ) = 0.40210E+00
  weight for this iteration     100.00

 eigenvalues of (default mixing * dielectric matrix)
  average eigenvalue GAMMA=   0.7022
  2.1578  0.9922  0.9922  0.8830  0.3773  0.2777  0.2777  0.1235  0.2381

 Free energy of the ion-electron system (eV)
  ---------------------------------------------------
  alpha Z        PSCENC =       954.96919766
  Ewald energy   TEWEN  =     92647.82918553
  -Hartree energ DENC   =   -120743.16151752
  -exchange      EXHF   =         0.00000000
  -V(xc)+E(xc)   XCENC  =       141.09193205
  PAW double counting   =     32567.26199366   -31650.21762736
  entropy T*S    EENTRO =        -2.05869079
  eigenvalues    EBANDS =      -717.66802060
  atomic energy  EATOM  =     26567.24197818
  Solvation  Ediel_sol  =         0.00000000
  ---------------------------------------------------
  free energy    TOTEN  =      -234.71156920 eV

  energy without entropy =     -232.65287841  energy(sigma->0) =     -233.68222380


--------------------------------------------------------------------------------------------------------




----------------------------------------- Iteration    1(  14)  ---------------------------------------


    POTLOK:  cpu time    0.0700: real time    0.0699
    SETDIJ:  cpu time    0.0080: real time    0.0082
    EDDIAG:  cpu time   13.7329: real time   13.7293
  RMM-DIIS:  cpu time   46.9619: real time   47.1078
    ORTHCH:  cpu time    3.4615: real time    3.4716
       DOS:  cpu time    0.0040: real time    0.0037
    CHARGE:  cpu time    2.4636: real time    2.4625
    MIXING:  cpu time    0.0040: real time    0.0042
    --------------------------------------------
      LOOP:  cpu time   66.7069: real time   66.8929

 eigenvalue-minimisations  : 26307
 total energy-change (2. order) : 0.4228215E-01  (-0.6521161E-02)
 number of electron     370.0000014 magnetization 
 augmentation part      112.0594295 magnetization 

 Broyden mixing:
  rms(total) = 0.24882E+00    rms(broyden)= 0.24881E+00
  rms(prec ) = 0.31919E+00
  weight for this iteration     100.00

 eigenvalues of (default mixing * dielectric matrix)
  average eigenvalue GAMMA=   0.6900
  2.0070  1.2089  1.2089  0.6216  0.6216  0.1235  0.2848  0.2848  0.2969  0.2421

 Free energy of the ion-electron system (eV)
  ---------------------------------------------------
  alpha Z        PSCENC =       954.96919766
  Ewald energy   TEWEN  =     92647.82918553
  -Hartree energ DENC   =   -120750.49172249
  -exchange      EXHF   =         0.00000000
  -V(xc)+E(xc)   XCENC  =       141.14999861
  PAW double counting   =     32540.84044888   -31623.48792019
  entropy T*S    EENTRO =        -2.06381778
  eigenvalues    EBANDS =      -710.65663544
  atomic energy  EATOM  =     26567.24197818
  Solvation  Ediel_sol  =         0.00000000
  ---------------------------------------------------
  free energy    TOTEN  =      -234.66928705 eV

  energy without entropy =     -232.60546927  energy(sigma->0) =     -233.63737816


--------------------------------------------------------------------------------------------------------




----------------------------------------- Iteration    1(  15)  ---------------------------------------


    POTLOK:  cpu time    1.7547: real time    1.7539
    SETDIJ:  cpu time    0.1310: real time    0.1309
    EDDIAG:  cpu time   13.6159: real time   13.7578
  RMM-DIIS:  cpu time   45.3931: real time   45.4013
    ORTHCH:  cpu time    3.3035: real time    3.3227
       DOS:  cpu time    0.0030: real time    0.0040
    CHARGE:  cpu time    2.4696: real time    2.4689
    MIXING:  cpu time    0.0050: real time    0.0043
    --------------------------------------------
      LOOP:  cpu time   66.6809: real time   66.8795

 eigenvalue-minimisations  : 25694
 total energy-change (2. order) : 0.3734041E-01  (-0.1529527E-02)
 number of electron     370.0000015 magnetization 
 augmentation part      112.0340513 magnetization 

 Broyden mixing:
  rms(total) = 0.16983E+00    rms(broyden)= 0.16983E+00
  rms(prec ) = 0.20564E+00
  weight for this iteration     100.00

 eigenvalues of (default mixing * dielectric matrix)
  average eigenvalue GAMMA=   0.7603
  2.0371  2.0371  1.2385  0.6592  0.6592  0.5233  0.1235  0.2837  0.2837  0.2849
  0.2332

 Free energy of the ion-electron system (eV)
  ---------------------------------------------------
  alpha Z        PSCENC =       954.96919766
  Ewald energy   TEWEN  =     92647.82918553
  -Hartree energ DENC   =   -120755.52179757
  -exchange      EXHF   =         0.00000000
  -V(xc)+E(xc)   XCENC  =       141.22532234
  PAW double counting   =     32504.80283532   -31586.98511468
  entropy T*S    EENTRO =        -2.07322313
  eigenvalues    EBANDS =      -706.12033029
  atomic energy  EATOM  =     26567.24197818
  Solvation  Ediel_sol  =         0.00000000
  ---------------------------------------------------
  free energy    TOTEN  =      -234.63194664 eV

  energy without entropy =     -232.55872351  energy(sigma->0) =     -233.59533508


--------------------------------------------------------------------------------------------------------




----------------------------------------- Iteration    1(  16)  ---------------------------------------


    POTLOK:  cpu time    0.7819: real time    0.9728
    SETDIJ:  cpu time    0.0090: real time    0.0082
    EDDIAG:  cpu time   13.7309: real time   13.7451
  RMM-DIIS:  cpu time   44.7432: real time   44.8088
    ORTHCH:  cpu time    3.3535: real time    3.4445
       DOS:  cpu time    0.0040: real time    0.0041
    CHARGE:  cpu time    2.3906: real time    2.4931
    MIXING:  cpu time    0.0050: real time    0.0043
    --------------------------------------------
      LOOP:  cpu time   65.0191: real time   65.6129

 eigenvalue-minimisations  : 25465
 total energy-change (2. order) : 0.1747290E-01  (-0.2096922E-02)
 number of electron     370.0000016 magnetization 
 augmentation part      112.0120506 magnetization 

 Broyden mixing:
  rms(total) = 0.11596E+00    rms(broyden)= 0.11595E+00
  rms(prec ) = 0.14046E+00
  weight for this iteration     100.00

 eigenvalues of (default mixing * dielectric matrix)
  average eigenvalue GAMMA=   0.7778
  2.1566  2.1566  1.3502  0.7163  0.7163  0.7212  0.1235  0.2835  0.2835  0.3406
  0.2549  0.2310

 Free energy of the ion-electron system (eV)
  ---------------------------------------------------
  alpha Z        PSCENC =       954.96919766
  Ewald energy   TEWEN  =     92647.82918553
  -Hartree energ DENC   =   -120763.09860527
  -exchange      EXHF   =         0.00000000
  -V(xc)+E(xc)   XCENC  =       141.32865923
  PAW double counting   =     32469.74649151   -31551.45797850
  entropy T*S    EENTRO =        -2.08557047
  eigenvalues    EBANDS =      -699.08783161
  atomic energy  EATOM  =     26567.24197818
  Solvation  Ediel_sol  =         0.00000000
  ---------------------------------------------------
  free energy    TOTEN  =      -234.61447374 eV

  energy without entropy =     -232.52890327  energy(sigma->0) =     -233.57168851


[...]
    159       0.6128      1.99964
    160       0.6740      1.99934
    161       0.7225      1.99893
    162       0.7640      1.99838
    163       0.8294      1.99689
    164       0.8404      1.99653
    165       0.8659      1.99553
    166       0.9259      1.99187
    167       0.9515      1.98950
    168       0.9683      1.98759
    169       1.0365      1.97561
    170       1.0779      1.96333
    171       1.1469      1.92821
    172       1.1667      1.91322
    173       1.1843      1.89732
    174       1.2172      1.86008
    175       1.2317      1.84000
    176       1.2494      1.81201
    177       1.3238      1.64164
    178       1.3750      1.46583
    179       1.3981      1.37077
    180       1.4060      1.33607
    181       1.4179      1.28227
    182       1.4496      1.13130
    183       1.4642      1.05869
    184       1.4731      1.01414
    185       1.5796      0.52358
    186       1.6312      0.34961
    187       1.6471      0.30596
    188       1.6842      0.22162
    189       1.7260      0.15162
    190       1.7360      0.13824
    191       1.7460      0.12594
    192       1.7805      0.09088
    193       1.8022      0.07375
    194       1.8163      0.06438
    195       1.9327      0.02057
    196       2.3591      0.00029
    197       2.6792      0.00001
    198       2.9077      0.00000
    199       2.9295      0.00000
    200       2.9706      0.00000
    201       3.0583      0.00000
    202       3.1292      0.00000
    203       3.2801      0.00000
    204       3.4397      0.00000
    205       3.6261      0.00000
    206       3.6571      0.00000
    207       3.7957      0.00000
    208       3.9858      0.00000
    209       4.0567      0.00000
    210       4.2525      0.00000
    211       4.3319      0.00000
    212       4.4193      0.00000
    213       4.5265      0.00000
    214       4.6482      0.00000
    215       4.7296      0.00000
    216       4.8213      0.00000
    217       4.9772      0.00000
    218       5.1196      0.00000
    219       5.2927      0.00000
    220       5.7828      0.00000
    221       5.9253      0.00000
    222       6.0766      0.00000
    223       6.2134      0.00000
    224       6.2943      0.00000
    225       6.5370      0.00000


--------------------------------------------------------------------------------------------------------


 soft charge-density along one line, spin component           1
         0         1         2         3         4         5         6         7         8         9
 total charge-density along one line
 
 pseudopotential strength for first ion, spin component:           1
 -6.016   0.001   0.001  -0.012   0.000  -6.132   0.001   0.001
  0.001  -5.911  -0.001   0.000  -0.011   0.001  -6.030  -0.001
  0.001  -0.001  -5.906   0.001  -0.001   0.001  -0.001  -6.026
 -0.012   0.000   0.001  -5.911   0.001  -0.011   0.000   0.001
  0.000  -0.011  -0.001   0.001  -6.015   0.000  -0.011  -0.001
 -6.132   0.001   0.001  -0.011   0.000  -6.232   0.001   0.001
  0.001  -6.030  -0.001   0.000  -0.011   0.001  -6.132  -0.001
  0.001  -0.001  -6.026   0.001  -0.001   0.001  -0.001  -6.129
 -0.011   0.000   0.001  -6.030   0.001  -0.011   0.000   0.001
  0.000  -0.011  -0.001   0.001  -6.132   0.000  -0.010  -0.001
  0.000   0.000  -0.032  -0.000   0.000   0.000   0.000  -0.032
  0.000   0.000  -0.048  -0.001   0.000  -0.000   0.000  -0.047
  0.001  -0.004   0.000   0.000   0.001   0.001  -0.003   0.000
  0.000  -0.000  -0.008   0.001  -0.000   0.000  -0.000  -0.008
  0.000   0.000  -0.000  -0.004   0.001   0.000   0.000  -0.000
  0.001  -0.003   0.000   0.000   0.001   0.001  -0.002   0.000
  0.000  -0.001  -0.008   0.001  -0.000   0.000  -0.001  -0.008
  0.000   0.000  -0.000  -0.003   0.001   0.000   0.000  -0.000
 total augmentation occupancy for first ion, spin component:           1
  3.148   0.001   0.030  -0.205   0.013  -2.021  -0.001  -0.018   0.033  -0.008   0.007   0.002  -0.003  -0.002  -0.048   0.001
  0.001   3.905  -0.019   0.019  -0.203  -0.001  -2.088   0.012  -0.011   0.038  -0.007   0.001  -0.257   0.003  -0.000   0.012
  0.030  -0.019   4.145   0.028  -0.017  -0.019   0.012  -2.555  -0.018   0.011   0.767  -0.119   0.004  -0.311  -0.007   0.000
 -0.205   0.019   0.028   3.881   0.001   0.039  -0.011  -0.018  -2.073  -0.001   0.011  -0.001  -0.000  -0.004  -0.256  -0.000
  0.013  -0.203  -0.017   0.001   3.162  -0.008   0.031   0.010  -0.001  -2.029  -0.004  -0.001  -0.051   0.001  -0.003   0.003
 -2.021  -0.001  -0.019   0.039  -0.008   2.534   0.000   0.012   0.084   0.005  -0.005  -0.001   0.001   0.001   0.049   0.000
 -0.001  -2.088   0.012  -0.011   0.031   0.000   2.100  -0.008   0.006   0.086   0.004   0.000   0.245  -0.002   0.000  -0.017
 -0.018   0.012  -2.555  -0.018   0.010   0.012  -0.008   2.729   0.012  -0.007  -0.664   0.083  -0.003   0.366   0.004   0.000
  0.033  -0.011  -0.018  -2.073  -0.001   0.084   0.006   0.012   2.091   0.000  -0.007  -0.000   0.000   0.002   0.245   0.000
 -0.008   0.038   0.011  -0.001  -2.029   0.005   0.086  -0.007   0.000   2.540   0.003   0.000   0.050  -0.001   0.001  -0.003
  0.007  -0.007   0.767   0.011  -0.004  -0.005   0.004  -0.664  -0.007   0.003   2.237  -0.446   0.001   0.185  -0.002  -0.000
  0.002   0.001  -0.119  -0.001  -0.001  -0.001   0.000   0.083  -0.000   0.000  -0.446   0.110   0.000  -0.065  -0.000   0.000
 -0.003  -0.257   0.004  -0.000  -0.051   0.001   0.245  -0.003   0.000   0.050   0.001   0.000   0.260  -0.000   0.000  -0.014
 -0.002   0.003  -0.311  -0.004   0.001   0.001  -0.002   0.366   0.002  -0.001   0.185  -0.065  -0.000   0.147   0.001   0.000
 -0.048  -0.000  -0.007  -0.256  -0.003   0.049   0.000   0.004   0.245   0.001  -0.002  -0.000   0.000   0.001   0.259  -0.000
  0.001   0.012   0.000  -0.000   0.003   0.000  -0.017   0.000   0.000  -0.003  -0.000   0.000  -0.014   0.000  -0.000   0.001
 -0.000  -0.001   0.004   0.001   0.000   0.000   0.000  -0.019  -0.000  -0.000  -0.018   0.005   0.000  -0.009  -0.000   0.000
  0.003  -0.000  -0.000   0.012   0.001  -0.003   0.000  -0.000  -0.017   0.000   0.000  -0.000  -0.000  -0.000  -0.014   0.000


------------------------ aborting loop because EDIFF is reached ----------------------------------------


    CHARGE:  cpu time    2.6466: real time    2.6714
    FORLOC:  cpu time    0.0170: real time    0.0169
    FORNL :  cpu time   14.6988: real time   15.1041
    STRESS:  cpu time   45.3901: real time   45.6197
    FORCOR:  cpu time    0.0820: real time    0.0822
    FORHAR:  cpu time    0.0330: real time    0.0329
    MIXING:  cpu time    0.0100: real time    0.0105
    OFIELD:  cpu time    0.0000: real time    0.0000

  FORCE on cell =-STRESS in cart. coord.  units (eV):
  Direction    XX          YY          ZZ          XY          YZ          ZX
  --------------------------------------------------------------------------------------
  Alpha Z   954.96920   954.96920   954.96920
  Ewald  112456.10051112527.59966************    68.67096    25.93875   -37.87419
  Hartree118982.72082119014.88339************    29.96555     8.51474   -12.71506
  E(xc)   -1628.10610 -1627.92090 -1637.30199     0.19605     0.06564    -0.08195
  Local  ************************242704.90567   -96.46012   -32.86493    49.23118
  n-local   151.55344   148.96177   137.55166    -1.99579     1.19610    -1.57081
  augment  1879.76111  1881.39256  1925.47418     1.02641    -0.53470     0.37000
  Kinetic  5331.92273  5331.68616  5454.28115    -1.06196    -2.05866     2.53562
  Fock        0.00000     0.00000     0.00000     0.00000     0.00000     0.00000
  -------------------------------------------------------------------------------------
  Total     -33.65795   -33.30073    -0.03752     0.34110     0.25694    -0.10522
  in kB     -40.13298   -39.70704    -0.04473     0.40673     0.30637    -0.12546
  external pressure =      -26.63 kB  Pullay stress =        0.00 kB


 VOLUME and BASIS-vectors are now :
 -----------------------------------------------------------------------------
  energy-cutoff  :      400.00
  volume of cell :     1343.68
      direct lattice vectors                 reciprocal lattice vectors
     8.421641764  0.000000000  0.000000000     0.118741693 -0.068555548  0.000000000
     4.210820882  7.293355709  0.000000000     0.000000000  0.137111097  0.000000000
     0.000000000  0.000000000 21.876241706     0.000000000  0.000000000  0.045711691

  length of vectors
     8.421641764  8.421641764 21.876241706     0.137111097  0.137111097  0.045711691


 FORCES acting on ions
    electron-ion (+dipol)            ewald-force                    non-local-force                 convergence-correction
 -----------------------------------------------------------------------------------------------
   0.104E+00 -.398E-01 0.233E+04   -.211E+00 0.104E+00 -.233E+04   0.664E-01 -.398E-01 -.111E+01   0.169E-03 -.326E-03 -.181E-02
   0.285E-01 -.348E+00 0.233E+04   0.905E-01 0.342E+00 -.233E+04   -.676E-01 -.108E-01 -.112E+01   -.447E-03 -.111E-03 -.183E-02
   -.756E-01 -.156E+00 0.233E+04   0.116E+00 0.138E+00 -.233E+04   -.230E-01 0.142E-01 -.123E+01   0.279E-03 -.749E-04 -.193E-02
   -.126E+00 0.756E-01 0.233E+04   0.135E+00 -.104E+00 -.233E+04   -.295E-02 0.134E-01 -.128E+01   0.467E-04 -.192E-03 -.180E-02
   0.463E-01 -.212E-01 0.233E+04   -.593E-01 0.337E-01 -.233E+04   0.241E-01 -.165E-01 -.121E+01   -.496E-04 0.332E-03 -.171E-02
   0.115E+00 0.167E+00 0.233E+04   -.765E-01 -.187E+00 -.233E+04   -.249E-01 0.946E-02 -.123E+01   0.280E-05 -.170E-04 -.192E-02
   -.124E+00 0.584E-01 0.233E+04   0.158E+00 -.484E-01 -.233E+04   -.149E-01 -.562E-02 -.127E+01   0.450E-03 0.134E-03 -.168E-02
   0.341E+00 0.144E+00 0.233E+04   -.273E+00 -.237E+00 -.233E+04   -.268E-01 0.593E-01 -.112E+01   -.326E-03 0.254E-03 -.170E-02
   -.120E+00 0.489E-01 0.233E+04   0.114E+00 -.399E-01 -.233E+04   -.720E-02 0.199E-02 -.125E+01   -.123E-03 0.178E-06 -.190E-02
   -.134E+00 -.511E+01 0.830E+03   0.155E+00 0.497E+01 -.829E+03   0.115E-01 0.164E+00 -.332E+00   -.290E-04 -.138E-03 -.386E-02
   0.100E+01 -.140E+01 0.830E+03   -.108E+01 0.136E+01 -.830E+03   -.416E-02 0.557E-01 -.253E+00   -.171E-03 0.239E-03 -.354E-02
   -.379E+00 0.456E+00 0.830E+03   0.526E+00 -.533E+00 -.829E+03   -.100E+00 0.405E-01 -.213E+00   0.200E-03 -.209E-03 -.374E-02
   -.114E+01 0.557E+00 0.831E+03   0.119E+01 -.584E+00 -.831E+03   -.272E-01 0.563E-02 -.290E+00   0.267E-03 0.213E-03 -.354E-02
   0.204E+01 -.226E-01 0.830E+03   -.204E+01 0.118E+00 -.830E+03   -.621E-01 -.473E-01 -.256E+00   -.379E-03 0.350E-03 -.361E-02
   0.471E-01 0.196E+01 0.833E+03   -.567E-01 -.201E+01 -.832E+03   -.313E-01 -.308E-02 -.359E+00   0.112E-03 -.336E-04 -.365E-02
   0.448E+01 0.292E+01 0.829E+03   -.435E+01 -.286E+01 -.829E+03   -.146E+00 -.111E+00 -.334E+00   0.275E-04 -.229E-03 -.388E-02
   -.192E+01 0.105E+01 0.833E+03   0.182E+01 -.981E+00 -.832E+03   0.752E-01 -.516E-01 -.346E+00   -.426E-03 -.262E-04 -.380E-02
   -.145E+01 -.108E+01 0.832E+03   0.150E+01 0.112E+01 -.832E+03   -.328E-01 0.107E-01 -.355E+00   0.397E-03 -.167E-03 -.361E-02
   -.563E+01 0.382E+01 -.689E+03   0.511E+01 -.347E+01 0.689E+03   0.521E+00 -.342E+00 -.148E+00   -.664E-06 0.170E-04 -.202E-02
   0.363E+01 0.279E+01 -.693E+03   -.324E+01 -.251E+01 0.693E+03   -.389E+00 -.289E+00 -.390E-01   0.188E-03 0.309E-03 -.209E-02
   0.205E+01 -.969E+00 -.688E+03   -.199E+01 0.930E+00 0.687E+03   -.720E-01 0.438E-01 0.104E+01   -.189E-03 0.183E-03 -.185E-02
   -.143E+01 0.584E+00 -.679E+03   0.143E+01 -.583E+00 0.679E+03   -.314E-02 0.551E-02 0.552E+00   0.351E-03 0.294E-05 -.207E-02
   -.563E+00 -.498E+01 -.694E+03   0.515E+00 0.449E+01 0.694E+03   0.413E-01 0.487E+00 -.444E-01   -.117E-03 -.784E-04 -.222E-02
   0.164E+01 -.233E+01 -.683E+03   -.162E+01 0.204E+01 0.683E+03   -.287E-01 0.295E+00 0.341E+00   -.230E-03 -.641E-04 -.202E-02
   -.596E+01 0.298E+01 -.689E+03   0.539E+01 -.271E+01 0.689E+03   0.555E+00 -.258E+00 -.145E+00   0.490E-04 -.247E-03 -.209E-02
   0.229E+01 -.952E+00 -.655E+03   -.233E+01 0.978E+00 0.654E+03   0.332E-01 -.269E-01 0.880E+00   -.165E-03 -.172E-03 -.235E-02
   0.251E+01 -.272E-02 -.685E+03   -.226E+01 0.127E+00 0.684E+03   -.263E+00 -.126E+00 0.331E+00   0.108E-03 0.603E-04 -.195E-02
   -.208E+02 0.111E+02 -.221E+04   0.211E+02 -.114E+02 0.221E+04   -.373E+00 0.258E+00 0.106E+01   -.213E-03 -.185E-04 -.249E-03
   0.255E+02 0.129E+02 -.218E+04   -.267E+02 -.136E+02 0.218E+04   0.124E+01 0.712E+00 0.148E+01   0.236E-03 0.124E-03 -.225E-03
   -.265E+02 0.107E+03 -.212E+04   0.260E+02 -.106E+03 0.212E+04   0.524E+00 -.317E+00 -.339E+01   -.251E-04 0.910E-04 -.186E-03
   0.940E+00 -.388E+01 -.222E+04   -.105E+01 0.391E+01 0.221E+04   0.113E+00 -.440E-01 0.110E+01   0.144E-03 0.155E-03 -.266E-03
   0.109E+03 -.641E+02 -.212E+04   -.110E+03 0.648E+02 0.212E+04   0.118E+01 -.675E+00 -.139E+01   0.778E-04 0.662E-04 -.257E-03
   -.106E+03 -.312E+02 -.212E+04   0.106E+03 0.315E+02 0.212E+04   0.574E+00 -.234E+00 -.337E+01   -.213E-03 0.124E-04 -.153E-03
   0.360E+01 0.170E+01 -.222E+04   -.369E+01 -.163E+01 0.222E+04   0.849E-01 -.622E-01 0.109E+01   0.377E-04 -.120E-03 -.362E-03
   0.217E+01 -.273E+02 -.218E+04   -.214E+01 0.287E+02 0.218E+04   -.487E-01 -.142E+01 0.147E+01   -.120E-03 -.316E-03 -.300E-03
   -.579E+01 0.343E+01 -.221E+04   0.573E+01 -.342E+01 0.221E+04   0.587E-01 -.484E-02 0.100E+01   0.824E-04 -.146E-04 -.194E-03
   0.405E+02 0.795E+02 -.108E+04   -.399E+02 -.831E+02 0.108E+04   -.669E+00 0.362E+01 -.340E+01   -.198E-04 0.230E-04 0.372E-03
   -.491E+02 -.745E+02 -.108E+04   0.525E+02 0.757E+02 0.108E+04   -.346E+01 -.122E+01 -.340E+01   -.309E-04 0.213E-04 0.365E-03
   0.298E+02 0.245E+02 -.282E+03   -.329E+02 -.266E+02 0.286E+03   0.305E+01 0.215E+01 -.439E+01   -.153E-05 0.275E-05 0.128E-03
   -.653E+01 -.380E+02 -.282E+03   0.690E+01 0.417E+02 0.286E+03   -.364E+00 -.372E+01 -.440E+01   -.452E-05 0.201E-05 0.126E-03
 -----------------------------------------------------------------------------------------------
   -.197E+01 0.107E+01 0.273E+02   -.755E-13 -.135E-12 -.108E-11   0.191E+01 -.107E+01 -.274E+02   -.560E-04 0.397E-04 -.694E-01
 
 
 POSITION                                       TOTAL-FORCE (eV/Angst)
 -----------------------------------------------------------------------------------
      0.00000      0.00000      7.50000        -0.038863      0.024348     -0.087968
      2.80721      0.00000      7.50000         0.052399     -0.017186     -0.084714
      5.61443      0.00000      7.50000         0.019389     -0.003873     -0.078469
      1.40361      2.43112      7.50000         0.007425     -0.015544     -0.040548
      4.21082      2.43112      7.50000         0.012585     -0.003675     -0.052830
      7.01803      2.43112      7.50000         0.014948     -0.010190     -0.078728
      2.80721      4.86224      7.50000         0.020516      0.004467     -0.041539
      5.61443      4.86224      7.50000         0.042137     -0.032836     -0.084748
      8.42164      4.86224      7.50000        -0.012553      0.010826     -0.063118
      1.40361      0.81037      9.79208         0.034241      0.026932     -0.067778
      4.21082      0.81037      9.79208        -0.079447      0.020729      0.132102
      7.01803      0.81037      9.79208         0.048614     -0.035996      0.164669
      2.80721      3.24149      9.79208         0.030464     -0.021323      0.165356
      5.61443      3.24149      9.79208        -0.064793      0.048818      0.127351
      8.42164      3.24149      9.79208        -0.039294     -0.049245      0.134866
      4.21082      5.67261      9.79208        -0.011279     -0.054378     -0.064557
      7.01803      5.67261      9.79208        -0.027083      0.014768     -0.080230
      9.82525      5.67261      9.79208         0.013072      0.051681      0.142646
      8.39189      1.63682     12.08551        -0.000278      0.006735     -0.006964
      2.80494      1.64376     12.09017         0.002640     -0.003865     -0.007675
      5.59909      1.62323     12.07880        -0.005173      0.004406      0.001198
      9.80556      4.05785     12.05729         0.001440      0.006764     -0.005661
      4.18694      4.03242     12.09123        -0.006016      0.002832     -0.012344
      7.00305      4.04619     12.06916        -0.003537      0.007604      0.000758
     11.19512      6.48977     12.08539        -0.008427      0.007287     -0.009044
      5.59071      6.49192     12.02273        -0.002113     -0.000846     -0.004772
      8.41254      6.49153     12.07175        -0.006357     -0.001479     -0.009992
     12.61501      7.28742     14.35665        -0.007586      0.012169      0.009502
      6.93959      7.27741     14.33070         0.005170     -0.010230      0.002879
      9.81479      7.24968     14.46092        -0.003707      0.005098     -0.006775
      9.78723      2.44269     14.36631         0.005171     -0.007496      0.000431
      4.14637      2.45448     14.51160        -0.000834     -0.000687      0.000612
      7.03286      2.43718     14.45901        -0.000147      0.009668      0.011700
     11.19226      4.86788     14.36876         0.001052      0.003624     -0.010030
      5.58519      4.92171     14.32966        -0.010635     -0.006581      0.007933
      8.39040      4.86525     14.36255         0.002830      0.002590      0.008281
      5.03822      1.12445     15.99732        -0.000285      0.001927      0.000333
      5.74123      2.33649     15.99770        -0.004066      0.006163     -0.009083
      4.46012      0.72660     16.83764         0.010795     -0.005942     -0.008060
      5.80158      3.03501     16.83803         0.007585      0.001938      0.005009
 -----------------------------------------------------------------------------------
    total drift:                               -0.057933      0.003809     -0.091836


--------------------------------------------------------------------------------------------------------



  FREE ENERGIE OF THE ION-ELECTRON SYSTEM (eV)
  ---------------------------------------------------
  free  energy   TOTEN  =      -234.60368375 eV

  energy  without entropy=     -232.51680918  energy(sigma->0) =     -233.56024646
 


--------------------------------------------------------------------------------------------------------


    POTLOK:  cpu time    0.0810: real time    0.0804


--------------------------------------------------------------------------------------------------------


 stress matrix after NEB project (eV)
    -33.65795      0.34110     -0.10522
      0.34110    -33.30073      0.25694
     -0.10522      0.25694     -0.03752
  FORCES: max atom, RMS     0.017202    0.008130
  FORCE total and by dimension    0.051418    0.012344
  Stress total and by dimension   47.351713   33.657951
     LOOP+:  cpu time 2658.1059: real time 2676.8606
    4ORBIT:  cpu time    0.0000: real time    0.0000

 total amount of memory used by VASP on root node   291975. kBytes
========================================================================

   base      :      30000. kBytes
   nonlr-proj:       4725. kBytes
   fftplans  :       4497. kBytes
   grid      :       7849. kBytes
   one-center:        155. kBytes
   wavefun   :     244749. kBytes
 
  
  
 General timing and accounting informations for this job:
 ========================================================
  
                  Total CPU time used (sec):     2690.491
                            User time (sec):     2628.572
                          System time (sec):       61.919
                         Elapsed time (sec):     2710.018
  
                   Maximum memory used (kb):      335940.
                   Average memory used (kb):           0.
  
                          Minor page faults:     25187698
                          Major page faults:            5
                 Voluntary context switches:         3493
