unknown system                          
           1
     8.421642    0.000000    0.000000
     4.210821    7.293356    0.000000
     0.000000    0.000000   21.876242
   Pt   C    H 
  36   2   2
Direct configuration=     1
   0.00000000  0.00000000  0.34283768
   0.33333333  0.00000000  0.34283768
   0.66666667  0.00000000  0.34283768
   0.00000000  0.33333333  0.34283768
   0.33333333  0.33333333  0.34283768
   0.66666667  0.33333333  0.34283768
   0.00000000  0.66666667  0.34283768
   0.33333333  0.66666667  0.34283768
   0.66666667  0.66666667  0.34283768
   0.11111111  0.11111111  0.44761256
   0.44444444  0.11111111  0.44761256
   0.77777778  0.11111111  0.44761256
   0.11111111  0.44444444  0.44761256
   0.44444444  0.44444444  0.44761256
   0.77777778  0.44444444  0.44761256
   0.11111111  0.77777778  0.44761256
   0.44444444  0.77777778  0.44761256
   0.77777778  0.77777778  0.44761256
   0.88425364  0.22442670  0.55244905
   0.22037514  0.22537740  0.55266231
   0.55356433  0.22256263  0.55214259
   0.88614075  0.55637661  0.55115934
   0.22071967  0.55288914  0.55271045
   0.55416527  0.55477803  0.55170179
   0.88441851  0.88981885  0.55244345
   0.21879337  0.89011458  0.54957939
   0.55388861  0.89006082  0.55182025
   0.99833368  0.99918677  0.65626679
   0.32511129  0.99781399  0.65508055
   0.66841930  0.99401135  0.66103307
   0.99469208  0.33491963  0.65670818
   0.32407926  0.33653634  0.66334966
   0.66801121  0.33416489  0.66094572
   0.99526763  0.66743977  0.65682033
   0.32578457  0.67482079  0.65503296
   0.66275092  0.66707916  0.65653655
   0.52115895  0.15417498  0.73126460
   0.52154469  0.32035839  0.73128174
   0.47978989  0.09962517  0.76967703
   0.48082207  0.41613406  0.76969475
