       N       E                     dE             d eps       ncg     rms          rms(c)
DAV:   1     0.218651815141E+04    0.21865E+04   -0.14404E+05 23810   0.117E+03
DAV:   2    -0.758831553002E+02   -0.22624E+04   -0.20947E+04 27900   0.269E+02
DAV:   3    -0.231424583459E+03   -0.15554E+03   -0.14031E+03 28580   0.637E+01
DAV:   4    -0.238161489995E+03   -0.67369E+01   -0.64991E+01 30180   0.128E+01    0.639E+01
RMM:   5    -0.227701311765E+03    0.10460E+02   -0.50788E+01 25116   0.145E+01    0.426E+01
RMM:   6    -0.270663881107E+03   -0.42963E+02   -0.74905E+01 25133   0.133E+01    0.565E+01
RMM:   7    -0.229009731614E+03    0.41654E+02   -0.29812E+01 24428   0.916E+00    0.238E+01
RMM:   8    -0.235717515321E+03   -0.67078E+01   -0.17729E+01 25128   0.665E+00    0.328E+01
RMM:   9    -0.231187208399E+03    0.45303E+01   -0.98647E+00 25371   0.488E+00    0.274E+01
RMM:  10    -0.223188507369E+03    0.79987E+01   -0.31263E+00 24493   0.304E+00    0.976E+00
RMM:  11    -0.222754992257E+03    0.43352E+00   -0.12770E+00 24920   0.182E+00    0.704E+00
RMM:  12    -0.222460186238E+03    0.29481E+00   -0.48621E-01 25317   0.111E+00    0.435E+00
RMM:  13    -0.222347095603E+03    0.11309E+00   -0.18818E-01 25337   0.693E-01    0.210E+00
RMM:  14    -0.222337329337E+03    0.97663E-02   -0.82237E-02 25484   0.460E-01    0.167E+00
RMM:  15    -0.222316864360E+03    0.20465E-01   -0.18073E-02 25091   0.230E-01    0.940E-01
RMM:  16    -0.222311682072E+03    0.51823E-02   -0.12365E-02 24799   0.181E-01    0.683E-01
RMM:  17    -0.222308978010E+03    0.27041E-02   -0.56266E-03 25029   0.124E-01    0.361E-01
RMM:  18    -0.222308219073E+03    0.75894E-03   -0.16528E-03 25327   0.689E-02    0.169E-01
RMM:  19    -0.222308000251E+03    0.21882E-03   -0.51338E-04 25475   0.369E-02    0.137E-01
RMM:  20    -0.222307910220E+03    0.90031E-04   -0.21558E-04 25086   0.247E-02    0.905E-02
RMM:  21    -0.222307897975E+03    0.12245E-04   -0.13441E-04 24895   0.178E-02    0.656E-02
RMM:  22    -0.222307944836E+03   -0.46862E-04   -0.64142E-05 25236   0.120E-02    0.420E-02
RMM:  23    -0.222308031092E+03   -0.86256E-04   -0.54573E-05 24807   0.107E-02    0.303E-02
RMM:  24    -0.222308260560E+03   -0.22947E-03   -0.76180E-05 24610   0.119E-02    0.633E-02
RMM:  25    -0.222308322519E+03   -0.61959E-04   -0.13000E-05 24826   0.521E-03    0.509E-02
RMM:  26    -0.222308503747E+03   -0.18123E-03   -0.24718E-05 24686   0.777E-03    0.166E-02
RMM:  27    -0.222308611934E+03   -0.10819E-03   -0.81368E-06 21109   0.397E-03    0.151E-02
RMM:  28    -0.222308735380E+03   -0.12345E-03   -0.59891E-06 18907   0.328E-03    0.113E-02
RMM:  29    -0.222308810782E+03   -0.75403E-04   -0.23660E-06 16517   0.215E-03    0.871E-03
RMM:  30    -0.222308902821E+03   -0.92039E-04   -0.31364E-06 16988   0.236E-03    0.385E-03
RMM:  31    -0.222308976142E+03   -0.73321E-04   -0.18807E-06 15585   0.165E-03    0.276E-03
RMM:  32    -0.222308997886E+03   -0.21744E-04   -0.60803E-07 13648   0.970E-04    0.270E-03
RMM:  33    -0.222309020460E+03   -0.22575E-04   -0.66533E-07 13056   0.953E-04    0.180E-03
RMM:  34    -0.222309027351E+03   -0.68907E-05   -0.26257E-07  9182   0.640E-04    0.985E-04
RMM:  35    -0.222309032864E+03   -0.55134E-05   -0.23309E-07  9583   0.634E-04    0.661E-04
RMM:  36    -0.222309036335E+03   -0.34709E-05   -0.18071E-07  8780   0.602E-04    0.427E-04
RMM:  37    -0.222309037299E+03   -0.96385E-06   -0.67872E-08  5795   0.478E-04
   1 F= -.22230904E+03 E0= -.22127234E+03  d E =-.207339E+01
