 vasp.5.4.1 24Jun15 (build Oct 10 2016 12:42:00) complex                        
  
 executed on           IFC91_ompi date 2018.06.13  11:13:43
 running on   20 total cores
 distrk:  each k-point on   20 cores,    1 groups
 distr:  one band on NCORES_PER_BAND=   4 cores,    5 groups


--------------------------------------------------------------------------------------------------------


 INCAR:
 POTCAR:    PAW_PBE Pt 04Feb2005                  
 POTCAR:    PAW_PBE C 08Apr2002                   
 POTCAR:    PAW_PBE H 15Jun2001                   
 POTCAR:    PAW_PBE Pt 04Feb2005                  
   VRHFIN =Pt: s1d9                                                             
   LEXCH  = PE                                                                  
   EATOM  =   729.1176 eV,   53.5886 Ry                                         
                                                                                
   TITEL  = PAW_PBE Pt 04Feb2005                                                
   LULTRA =        F    use ultrasoft PP ?                                      
   IUNSCR =        1    unscreen: 0-lin 1-nonlin 2-no                           
   RPACOR =    2.330    partial core radius                                     
   POMASS =  195.080; ZVAL   =   10.000    mass and valenz                      
   RCORE  =    2.600    outmost cutoff radius                                   
   RWIGS  =    2.750; RWIGS  =    1.455    wigner-seitz radius (au A)           
   ENMAX  =  230.283; ENMIN  =  172.712 eV                                      
   ICORE  =        3    local potential                                         
   LCOR   =        T    correct aug charges                                     
   LPAW   =        T    paw PP                                                  
   EAUG   =  358.966                                                            
   DEXC   =    0.000                                                            
   RMAX   =    2.658    core radius for proj-oper                               
   RAUG   =    1.300    factor for augmentation sphere                          
   RDEP   =    2.761    radius for radial grids                                 
   RDEPT  =    2.203    core radius for aug-charge                              
                                                                                
   Atomic configuration                                                         
   16 entries                                                                   
     n  l   j            E        occ.                                          
     1  0  0.50    -78401.1885   2.0000                                         
     2  0  0.50    -13770.7750   2.0000                                         
     2  1  1.50    -11931.0468   6.0000                                         
     3  0  0.50     -3234.7234   2.0000                                         
     3  1  1.50     -2699.2216   6.0000                                         
     3  2  2.50     -2119.5714  10.0000                                         
     4  0  0.50      -695.1528   2.0000                                         
     4  1  1.50      -519.6034   6.0000                                         
     4  2  2.50      -306.6786  10.0000                                         
     4  3  3.50       -70.1041  14.0000                                         
     5  0  0.50      -101.7747   2.0000                                         
     5  1  1.50       -55.9873   6.0000                                         
     5  2  2.50        -6.1423   9.0000                                         
     6  0  0.50        -5.6573   1.0000                                         
     6  1  1.50        -6.8029   0.0000                                         
     5  3  2.50        -1.3606   0.0000                                         
   Description                                                                  
     l       E           TYP  RCUT    TYP  RCUT                                 
     2     -6.1423404     23  2.500                                             
     2     -7.5029230     23  2.500                                             
     0     -5.6573207     23  2.500                                             
     0      0.7416693     23  2.500                                             
     1     -2.7211652     23  2.600                                             
     1     20.4087390     23  2.600                                             
     3     -1.3605826     23  2.500                                             
  local pseudopotential read in
  partial core-charges read in
  partial kinetic energy density read in
  atomic valenz-charges read in
  non local Contribution for L=           2  read in
    real space projection operators read in
  non local Contribution for L=           2  read in
    real space projection operators read in
  non local Contribution for L=           0  read in
    real space projection operators read in
  non local Contribution for L=           0  read in
    real space projection operators read in
  non local Contribution for L=           1  read in
    real space projection operators read in
  non local Contribution for L=           1  read in
    real space projection operators read in
    PAW grid and wavefunctions read in
 
   number of l-projection  operators is LMAX  =           6
   number of lm-projection operators is LMMAX =          18
 
 POTCAR:    PAW_PBE C 08Apr2002                   
   VRHFIN =C: s2p2                                                              
   LEXCH  = PE                                                                  
   EATOM  =   147.1560 eV,   10.8157 Ry                                         
                                                                                
   TITEL  = PAW_PBE C 08Apr2002                                                 
   LULTRA =        F    use ultrasoft PP ?                                      
   IUNSCR =        1    unscreen: 0-lin 1-nonlin 2-no                           
   RPACOR =    1.200    partial core radius                                     
   POMASS =   12.011; ZVAL   =    4.000    mass and valenz                      
   RCORE  =    1.500    outmost cutoff radius                                   
   RWIGS  =    1.630; RWIGS  =    0.863    wigner-seitz radius (au A)           
   ENMAX  =  400.000; ENMIN  =  300.000 eV                                      
   ICORE  =        2    local potential                                         
   LCOR   =        T    correct aug charges                                     
   LPAW   =        T    paw PP                                                  
   EAUG   =  644.873                                                            
   DEXC   =    0.000                                                            
   RMAX   =    1.529    core radius for proj-oper                               
   RAUG   =    1.300    factor for augmentation sphere                          
   RDEP   =    1.501    radius for radial grids                                 
   RDEPT  =    1.300    core radius for aug-charge                              
                                                                                
   Atomic configuration                                                         
    4 entries                                                                   
     n  l   j            E        occ.                                          
     1  0  0.50      -273.3789   2.0000                                         
     2  0  0.50       -13.7508   2.0000                                         
     2  1  0.50        -5.2854   2.0000                                         
     3  2  1.50        -5.4423   0.0000                                         
   Description                                                                  
     l       E           TYP  RCUT    TYP  RCUT                                 
     0    -13.7508458     23  1.200                                             
     0     -8.2022199     23  1.200                                             
     1     -5.2854383     23  1.500                                             
     1     34.0145650     23  1.500                                             
     2     -5.4423304      7  1.500                                             
  local pseudopotential read in
  partial core-charges read in
  partial kinetic energy density read in
  atomic valenz-charges read in
  non local Contribution for L=           0  read in
    real space projection operators read in
  non local Contribution for L=           0  read in
    real space projection operators read in
  non local Contribution for L=           1  read in
    real space projection operators read in
  non local Contribution for L=           1  read in
    real space projection operators read in
    PAW grid and wavefunctions read in
 
   number of l-projection  operators is LMAX  =           4
   number of lm-projection operators is LMMAX =           8
 
 POTCAR:    PAW_PBE H 15Jun2001                   
   VRHFIN =H: ultrasoft test                                                    
   LEXCH  = PE                                                                  
   EATOM  =    12.4884 eV,    0.9179 Ry                                         
                                                                                
   TITEL  = PAW_PBE H 15Jun2001                                                 
   LULTRA =        F    use ultrasoft PP ?                                      
   IUNSCR =        0    unscreen: 0-lin 1-nonlin 2-no                           
   RPACOR =    0.000    partial core radius                                     
   POMASS =    1.000; ZVAL   =    1.000    mass and valenz                      
   RCORE  =    1.100    outmost cutoff radius                                   
   RWIGS  =    0.700; RWIGS  =    0.370    wigner-seitz radius (au A)           
   ENMAX  =  250.000; ENMIN  =  200.000 eV                                      
   RCLOC  =    0.701    cutoff for local pot                                    
   LCOR   =        T    correct aug charges                                     
   LPAW   =        T    paw PP                                                  
   EAUG   =  400.000                                                            
   RMAX   =    1.123    core radius for proj-oper                               
   RAUG   =    1.200    factor for augmentation sphere                          
   RDEP   =    1.112    radius for radial grids                                 
   RDEPT  =    0.926    core radius for aug-charge                              
                                                                                
   Atomic configuration                                                         
    2 entries                                                                   
     n  l   j            E        occ.                                          
     1  0  0.50        -6.4927   1.0000                                         
     2  1  0.50        -3.4015   0.0000                                         
   Description                                                                  
     l       E           TYP  RCUT    TYP  RCUT                                 
     0     -6.4927494     23  1.100                                             
     0      6.8029130     23  1.100                                             
     1     -4.0817478     23  1.100                                             
  local pseudopotential read in
  atomic valenz-charges read in
  non local Contribution for L=           0  read in
    real space projection operators read in
  non local Contribution for L=           0  read in
    real space projection operators read in
  non local Contribution for L=           1  read in
    real space projection operators read in
    PAW grid and wavefunctions read in
 
   number of l-projection  operators is LMAX  =           3
   number of lm-projection operators is LMMAX =           5
 
 Optimization of the real space projectors (new method)

 maximal supplied QI-value         = 14.36
 optimisation between [QCUT,QGAM] = [ 10.20, 20.39] = [ 29.12,116.47] Ry 
 Optimized for a Real-space Cutoff    1.51 Angstroem

   l    n(q)    QCUT    max X(q) W(low)/X(q) W(high)/X(q)  e(spline) 
   2      8    10.197    66.195    0.45E-03    0.45E-03    0.14E-06
   2      8    10.197    64.643    0.46E-03    0.46E-03    0.14E-06
   0      9    10.197    95.520    0.15E-03    0.11E-03    0.54E-07
   0      9    10.197    63.403    0.15E-03    0.11E-03    0.52E-07
   1      9    10.197    19.961    0.13E-03    0.17E-03    0.77E-07
   1      9    10.197    13.289    0.10E-03    0.15E-03    0.67E-07
 Optimization of the real space projectors (new method)

 maximal supplied QI-value         = 25.13
 optimisation between [QCUT,QGAM] = [ 10.05, 20.36] = [ 28.30,116.06] Ry 
 Optimized for a Real-space Cutoff    1.30 Angstroem

   l    n(q)    QCUT    max X(q) W(low)/X(q) W(high)/X(q)  e(spline) 
   0      8    10.053   115.676    0.49E-03    0.72E-03    0.18E-06
   0      8    10.053    87.132    0.49E-03    0.71E-03    0.18E-06
   1      7    10.053     4.429    0.32E-03    0.31E-03    0.18E-06
   1      7    10.053     2.733    0.23E-03    0.19E-03    0.20E-06
 Optimization of the real space projectors (new method)

 maximal supplied QI-value         = 34.20
 optimisation between [QCUT,QGAM] = [  9.92, 20.18] = [ 27.55,114.04] Ry 
 Optimized for a Real-space Cutoff    1.26 Angstroem

   l    n(q)    QCUT    max X(q) W(low)/X(q) W(high)/X(q)  e(spline) 
   0      8     9.919    19.460    0.50E-03    0.23E-03    0.29E-06
   0      8     9.919    12.209    0.48E-03    0.23E-03    0.28E-06
   1      7     9.919     4.655    0.17E-03    0.75E-03    0.30E-06
  PAW_PBE Pt 04Feb2005                  :
 energy of atom  1       EATOM= -729.1176
 kinetic energy error for atom=    0.0056 (will be added to EATOM!!)
  PAW_PBE C 08Apr2002                   :
 energy of atom  2       EATOM= -147.1560
 kinetic energy error for atom=    0.0288 (will be added to EATOM!!)
  PAW_PBE H 15Jun2001                   :
 energy of atom  3       EATOM=  -12.4884
 kinetic energy error for atom=    0.0098 (will be added to EATOM!!)
 
 
 POSCAR: Pt  C  H                                
  positions in cartesian coordinates
  No initial velocities read in
 exchange correlation table for  LEXCH =        8
   RHO(1)=    0.500       N(1)  =     2000
   RHO(2)=  100.500       N(2)  =     4000

 VTST: version 3.1, (03/28/14)

 CHAIN: initializing optimizer
 
 OPT: Using VASP Dynamics algorithm
 CHAIN: Read ICHAIN            0
 
 POSCAR: Pt  C  H                                
  positions in cartesian coordinates
  No initial velocities read in
 


--------------------------------------------------------------------------------------------------------


 ion  position               nearest neighbor table
   1  0.000  0.000  0.343-  12 2.81  16 2.81  10 2.81   6 2.81   7 2.81   8 2.81   2 2.81   3 2.81
                             4 2.81
   2  0.333  0.000  0.343-  10 2.81  11 2.81  17 2.81   3 2.81   9 2.81   1 2.81   4 2.81   5 2.81
                             8 2.81
   3  0.667  0.000  0.343-  11 2.81  18 2.81  12 2.81   2 2.81   5 2.81   9 2.81   1 2.81   6 2.81
                             7 2.81
   4  0.000  0.333  0.343-  10 2.81  13 2.81  15 2.81   7 2.81   9 2.81   2 2.81   5 2.81   6 2.81
                             1 2.81
   5  0.333  0.333  0.343-  14 2.81  13 2.81  11 2.81   8 2.81   6 2.81   3 2.81   7 2.81   2 2.81
                             4 2.81
   6  0.667  0.333  0.343-  12 2.81  14 2.81  15 2.81   5 2.81   8 2.81   9 2.81   1 2.81   3 2.81
                             4 2.81
   7  0.000  0.667  0.343-  13 2.81  18 2.81  16 2.81   4 2.81   5 2.81   9 2.81   1 2.81   3 2.81
                             8 2.81
   8  0.333  0.667  0.343-  14 2.81  16 2.81  17 2.81   5 2.81   6 2.81   9 2.81   2 2.81   7 2.81
                             1 2.81
   9  0.667  0.667  0.343-  15 2.81  17 2.81  18 2.81   8 2.81   6 2.81   4 2.81   2 2.81   3 2.81
                             7 2.81
  10  0.111  0.111  0.448-  19 2.78  26 2.78   2 2.81   4 2.81   1 2.81  11 2.81  13 2.81  15 2.81
                            17 2.81  16 2.81  12 2.81  20 2.82
  11  0.444  0.111  0.448-  27 2.79  20 2.80   5 2.81   2 2.81   3 2.81  14 2.81  10 2.81  13 2.81
                            18 2.81  12 2.81  17 2.81  21 2.81
  12  0.778  0.111  0.448-  25 2.78  19 2.78   1 2.81   6 2.81   3 2.81  15 2.81  14 2.81  16 2.81
                            18 2.81  10 2.81  11 2.81  21 2.81
  13  0.111  0.444  0.448-  22 2.78  20 2.80   7 2.81   4 2.81   5 2.81  14 2.81  10 2.81  11 2.81
                            18 2.81  15 2.81  16 2.81  23 2.83
  14  0.444  0.444  0.448-  24 2.79  21 2.80   5 2.81   6 2.81   8 2.81  11 2.81  13 2.81  12 2.81
                            16 2.81  15 2.81  17 2.81  23 2.83
  15  0.778  0.444  0.448-  19 2.77  24 2.79  22 2.79   4 2.81   6 2.81   9 2.81  12 2.81  10 2.81
                            18 2.81  13 2.81  14 2.81  17 2.81
  16  0.111  0.778  0.448-   1 2.81   8 2.81   7 2.81  17 2.81  14 2.81  13 2.81  10 2.81  12 2.81
                            18 2.81  25 2.81  26 2.81  23 2.83
  17  0.444  0.778  0.448-  24 2.77  26 2.80   9 2.81   2 2.81   8 2.81  16 2.81  10 2.81  11 2.81
                            18 2.81  14 2.81  15 2.81  27 2.81
  18  0.778  0.778  0.448-  22 2.77  25 2.80  27 2.80   7 2.81   3 2.81   9 2.81  15 2.81  16 2.81
                            17 2.81  11 2.81  12 2.81  13 2.81
  19  0.888  0.224  0.551-  15 2.77  10 2.78  12 2.78  26 2.80  25 2.80  33 2.81  31 2.81  28 2.81
                            24 2.81  22 2.81  20 2.82  21 2.82
  20  0.223  0.224  0.552-  23 2.79  21 2.79  26 2.79  27 2.79  13 2.80  31 2.80  11 2.80  19 2.82
                            10 2.82  22 2.82  29 2.88  32 2.96
  21  0.554  0.224  0.552-  23 2.79  20 2.79  25 2.79  27 2.79  14 2.80  33 2.80  11 2.81  12 2.81
                            19 2.82  24 2.82  30 2.88  32 2.96
  22  0.888  0.558  0.551-  18 2.77  13 2.78  31 2.79  15 2.79  23 2.80  25 2.81  36 2.81  27 2.81
                            19 2.81  24 2.82  20 2.82  34 2.83
  23  0.223  0.554  0.554-  32 2.77  20 2.79  21 2.79  24 2.80  22 2.80  34 2.81  35 2.81  14 2.83
                            13 2.83  16 2.83  25 2.84  26 2.84
  24  0.554  0.558  0.551-  17 2.77  33 2.78  14 2.79  15 2.79  23 2.80  26 2.81  19 2.81  27 2.81
                            36 2.81  22 2.82  21 2.82  35 2.83
  25  0.886  0.893  0.552-  12 2.78  34 2.78  21 2.79  27 2.80  18 2.80  19 2.80  22 2.81  16 2.81
                            28 2.82  26 2.83  23 2.84  30 2.86
  26  0.222  0.893  0.552-  35 2.78  10 2.78  20 2.79  27 2.80  17 2.80  19 2.80  24 2.81  16 2.81
                            28 2.82  25 2.83  23 2.84  29 2.86
  27  0.554  0.892  0.552-  11 2.79  21 2.79  20 2.79  25 2.80  26 2.80  36 2.80  18 2.80  17 2.81
                            22 2.81  24 2.81  30 2.91  29 2.91
  28  0.997  0.007  0.657-  30 2.76  29 2.76  34 2.79  35 2.79  33 2.80  31 2.80  19 2.81  26 2.82
                            25 2.82
  29  0.327  0.001  0.661-  38 1.98  35 2.71  28 2.76  31 2.83  36 2.84  26 2.86  20 2.88  30 2.91
                            27 2.91  32 3.01
  30  0.673  0.001  0.661-  38 1.98  34 2.71  28 2.76  36 2.83  33 2.84  25 2.86  21 2.88  29 2.91
                            27 2.91  32 3.01
  31  0.994  0.340  0.655-  36 2.76  33 2.76  22 2.79  28 2.80  20 2.80  19 2.81  29 2.83  34 2.83
                            32 2.84
  32  0.320  0.362  0.663-  38 2.10  37 2.20  34 2.71  35 2.71  23 2.77  31 2.84  33 2.84  21 2.96
                            20 2.96  29 3.01  30 3.01
  33  0.666  0.341  0.655-  36 2.76  31 2.76  24 2.78  28 2.80  21 2.80  19 2.81  35 2.83  30 2.84
                            32 2.84
  34  0.993  0.678  0.657-  32 2.71  30 2.71  25 2.78  28 2.79  36 2.79  23 2.81  31 2.83  22 2.83
                            35 2.84
  35  0.331  0.678  0.657-  29 2.71  32 2.71  26 2.78  28 2.79  36 2.79  23 2.81  33 2.83  24 2.83
                            34 2.84
  36  0.667  0.667  0.656-  31 2.76  33 2.76  34 2.79  35 2.79  27 2.80  22 2.81  24 2.81  30 2.83
                            29 2.84
  37  0.377  0.248  0.756-  40 1.09  39 1.09  38 1.41  32 2.20
  38  0.445  0.111  0.710-  37 1.41  30 1.98  29 1.98  32 2.10
  39  0.471  0.280  0.780-  37 1.09
  40  0.250  0.281  0.780-  37 1.09
 
  LATTYP: Found a hexagonal cell.
 ALAT       =     8.4216417639
 C/A-ratio  =     2.5976219743
  
  Lattice vectors:
  
 A1 = (   4.2108208820,  -7.2933557091,   0.0000000000)
 A2 = (  -8.4216417639,   0.0000000000,   0.0000000000)
 A3 = (   0.0000000000,   0.0000000000, -21.8762417060)


Analysis of symmetry for initial positions (statically):
=====================================================================
 Subroutine PRICEL returns:
 Original cell was already a primitive cell.
 

 Routine SETGRP: Setting up the symmetry group for a 
 hexagonal supercell.


 Subroutine GETGRP returns: Found  1 space group operations
 (whereof  1 operations were pure point group operations)
 out of a pool of 24 trial point group operations.


The static configuration has the point symmetry C_1 .


Analysis of symmetry for dynamics (positions and initial velocities):
=====================================================================
 Subroutine PRICEL returns:
 Original cell was already a primitive cell.
 

 Routine SETGRP: Setting up the symmetry group for a 
 hexagonal supercell.


 Subroutine GETGRP returns: Found  1 space group operations
 (whereof  1 operations were pure point group operations)
 out of a pool of 24 trial point group operations.


The dynamic configuration has the point symmetry C_1 .


Analysis of constrained symmetry for selective dynamics:
=====================================================================
 Subroutine PRICEL returns:
 Original cell was already a primitive cell.
 

 Routine SETGRP: Setting up the symmetry group for a 
 hexagonal supercell.


 Subroutine GETGRP returns: Found  1 space group operations
 (whereof  1 operations were pure point group operations)
 out of a pool of 24 trial point group operations.


The constrained configuration has the point symmetry C_1 .
 
 
 KPOINTS: KPOINTS created by Atomic Simulation Env

Automatic generation of k-mesh.
Space group operators:
 irot       det(A)        alpha          n_x          n_y          n_z        tau_x        tau_y        tau_z
    1     1.000000     0.000000     1.000000     0.000000     0.000000     0.000000     0.000000     0.000000
 
 Subroutine IBZKPT returns following result:
 ===========================================
 
 Found     54 irreducible k-points:
 
 Following reciprocal coordinates:
            Coordinates               Weight
  0.083333  0.083333  0.000000     16.000000
  0.000000  0.083333  0.000000     16.000000
 -0.083333  0.000000  0.000000     16.000000
  0.250000  0.083333  0.000000     16.000000
  0.166667  0.250000  0.000000     16.000000
 -0.083333  0.166667  0.000000     16.000000
  0.166667 -0.083333  0.000000     16.000000
 -0.083333 -0.250000  0.000000     16.000000
 -0.250000 -0.166667  0.000000     16.000000
  0.416667  0.083333  0.000000     16.000000
  0.333333  0.416667  0.000000     16.000000
 -0.083333  0.333333  0.000000     16.000000
  0.333333 -0.083333  0.000000     16.000000
 -0.083333 -0.416667  0.000000     16.000000
 -0.416667 -0.333333  0.000000     16.000000
 -0.416667  0.083333  0.000000     16.000000
  0.500000 -0.416667  0.000000     16.000000
 -0.083333  0.500000  0.000000     16.000000
  0.500000 -0.083333  0.000000     16.000000
 -0.083333  0.416667  0.000000     16.000000
  0.416667  0.500000  0.000000     16.000000
 -0.250000  0.083333  0.000000     16.000000
 -0.333333 -0.250000  0.000000     16.000000
 -0.083333 -0.333333  0.000000     16.000000
 -0.333333 -0.083333  0.000000     16.000000
 -0.083333  0.250000  0.000000     16.000000
  0.250000  0.333333  0.000000     16.000000
 -0.083333  0.083333  0.000000     16.000000
 -0.166667 -0.083333  0.000000     16.000000
 -0.083333 -0.166667  0.000000     16.000000
  0.250000  0.250000  0.000000     16.000000
  0.000000  0.250000  0.000000     16.000000
 -0.250000  0.000000  0.000000     16.000000
  0.416667  0.250000  0.000000     16.000000
  0.166667  0.416667  0.000000     16.000000
 -0.250000  0.166667  0.000000     16.000000
  0.166667 -0.250000  0.000000     16.000000
 -0.250000 -0.416667  0.000000     16.000000
 -0.416667 -0.166667  0.000000     16.000000
 -0.416667  0.250000  0.000000     16.000000
  0.333333 -0.416667  0.000000     16.000000
 -0.250000  0.333333  0.000000     16.000000
  0.333333 -0.250000  0.000000     16.000000
 -0.250000  0.416667  0.000000     16.000000
  0.416667 -0.333333  0.000000     16.000000
 -0.250000  0.250000  0.000000     16.000000
  0.500000 -0.250000  0.000000     16.000000
 -0.250000  0.500000  0.000000     16.000000
  0.416667  0.416667  0.000000     16.000000
  0.000000  0.416667  0.000000     16.000000
 -0.416667 -0.000000  0.000000     16.000000
 -0.416667  0.416667  0.000000     16.000000
  0.166667 -0.416667  0.000000     16.000000
 -0.416667  0.166667  0.000000     16.000000
 
 Following cartesian coordinates:
            Coordinates               Weight
  0.009895  0.005713  0.000000     16.000000
  0.000000  0.011426  0.000000     16.000000
 -0.009895  0.005713  0.000000     16.000000
  0.029685 -0.005713  0.000000     16.000000
  0.019790  0.022852  0.000000     16.000000
 -0.009895  0.028565  0.000000     16.000000
  0.019790 -0.022852  0.000000     16.000000
 -0.009895 -0.028565  0.000000     16.000000
 -0.029685 -0.005713  0.000000     16.000000
  0.049476 -0.017139  0.000000     16.000000
  0.039581  0.034278  0.000000     16.000000
 -0.009895  0.051417  0.000000     16.000000
  0.039581 -0.034278  0.000000     16.000000
 -0.009895 -0.051417  0.000000     16.000000
 -0.049476 -0.017139  0.000000     16.000000
 -0.049476  0.039991  0.000000     16.000000
  0.059371 -0.091407  0.000000     16.000000
 -0.009895  0.074269  0.000000     16.000000
  0.059371 -0.045704  0.000000     16.000000
 -0.009895  0.062843  0.000000     16.000000
  0.049476  0.039991  0.000000     16.000000
 -0.029685  0.028565  0.000000     16.000000
 -0.039581 -0.011426  0.000000     16.000000
 -0.009895 -0.039991  0.000000     16.000000
 -0.039581  0.011426  0.000000     16.000000
 -0.009895  0.039991  0.000000     16.000000
  0.029685  0.028565  0.000000     16.000000
 -0.009895  0.017139  0.000000     16.000000
 -0.019790  0.000000  0.000000     16.000000
 -0.009895 -0.017139  0.000000     16.000000
  0.029685  0.017139  0.000000     16.000000
  0.000000  0.034278  0.000000     16.000000
 -0.029685  0.017139  0.000000     16.000000
  0.049476  0.005713  0.000000     16.000000
  0.019790  0.045704  0.000000     16.000000
 -0.029685  0.039991  0.000000     16.000000
  0.019790 -0.045704  0.000000     16.000000
 -0.029685 -0.039991  0.000000     16.000000
 -0.049476  0.005713  0.000000     16.000000
 -0.049476  0.062843  0.000000     16.000000
  0.039581 -0.079981  0.000000     16.000000
 -0.029685  0.062843  0.000000     16.000000
  0.039581 -0.057130  0.000000     16.000000
 -0.029685  0.074269  0.000000     16.000000
  0.049476 -0.074269  0.000000     16.000000
 -0.029685  0.051417  0.000000     16.000000
  0.059371 -0.068556  0.000000     16.000000
 -0.029685  0.085694  0.000000     16.000000
  0.049476  0.028565  0.000000     16.000000
  0.000000  0.057130  0.000000     16.000000
 -0.049476  0.028565  0.000000     16.000000
 -0.049476  0.085694  0.000000     16.000000
  0.019790 -0.068556  0.000000     16.000000
 -0.049476  0.051417  0.000000     16.000000
 


--------------------------------------------------------------------------------------------------------




 Dimension of arrays:
   k-points           NKPTS =     54   k-points in BZ     NKDIM =     54   number of bands    NBANDS=    225
   number of dos      NEDOS =    301   number of ions     NIONS =     40
   non local maximal  LDIM  =      6   non local SUM 2l+1 LMDIM =     18
   total plane-waves  NPLWV = 190512
   max r-space proj   IRMAX =   2088   max aug-charges    IRDMAX=   8786
   dimension x,y,z NGX =    42 NGY =   42 NGZ =  108
   dimension x,y,z NGXF=    84 NGYF=   84 NGZF=  216
   support grid    NGXF=    84 NGYF=   84 NGZF=  216
   ions per type =              36   2   2
 NGX,Y,Z   is equivalent  to a cutoff of   8.29,  8.29,  8.21 a.u.
 NGXF,Y,Z  is equivalent  to a cutoff of  16.58, 16.58, 16.41 a.u.


 I would recommend the setting:
   dimension x,y,z NGX =    41 NGY =   41 NGZ =  107
 SYSTEM =  unknown system                          
 POSCAR =  Pt  C  H                                

 Startparameter for this run:
   NWRITE =      2    write-flag & timer
   PREC   = normal    normal or accurate (medium, high low for compatibility)
   ISTART =      0    job   : 0-new  1-cont  2-samecut
   ICHARG =      2    charge: 1-file 2-atom 10-const
   ISPIN  =      1    spin polarized calculation?
   LNONCOLLINEAR =      F non collinear calculations
   LSORBIT =      F    spin-orbit coupling
   INIWAV =      1    electr: 0-lowe 1-rand  2-diag
   LASPH  =      F    aspherical Exc in radial PAW
   METAGGA=      F    non-selfconsistent MetaGGA calc.

 Electronic Relaxation 1
   ENCUT  =  400.0 eV  29.40 Ry    5.42 a.u.  13.73 13.73 35.67*2*pi/ulx,y,z
   ENINI  =  400.0     initial cutoff
   ENAUG  =  644.9 eV  augmentation charge cutoff
   NELM   =     60;   NELMIN=  4; NELMDL= -4     # of ELM steps 
   EDIFF  = 0.1E-05   stopping-criterion for ELM
   LREAL  =      T    real-space projection
   NLSPLINE    = F    spline interpolate recip. space projectors
   LCOMPAT=      F    compatible to vasp.4.4
   GGA_COMPAT  = T    GGA compatible to vasp.4.4-vasp.4.6
   LMAXPAW     = -100 max onsite density
   LMAXMIX     =    2 max onsite mixed and CHGCAR
   VOSKOWN=      0    Vosko Wilk Nusair interpolation
   ROPT   =   -0.00050  -0.00050  -0.00050
 Ionic relaxation
   EDIFFG = 0.1E-04   stopping-criterion for IOM
   NSW    =      0    number of steps for IOM
   NBLOCK =      1;   KBLOCK =      1    inner block; outer block 
   IBRION =     -1    ionic relax: 0-MD 1-quasi-New 2-CG
   NFREE  =      0    steps in history (QN), initial steepest desc. (CG)
   ISIF   =      2    stress and relaxation
   IWAVPR =     10    prediction:  0-non 1-charg 2-wave 3-comb
   ISYM   =      2    0-nonsym 1-usesym 2-fastsym
   LCORR  =      T    Harris-Foulkes like correction to forces

   POTIM  = 0.5000    time-step for ionic-motion
   TEIN   =    0.0    initial temperature
   TEBEG  =    0.0;   TEEND  =   0.0 temperature during run
   SMASS  =  -3.00    Nose mass-parameter (am)
   estimated Nose-frequenzy (Omega)   =  0.10E-29 period in steps =****** mass=  -0.162E-26a.u.
   SCALEE = 1.0000    scale energy and forces
   NPACO  =    256;   APACO  = 16.0  distance and # of slots for P.C.
   PSTRESS=    0.0 pullay stress

  Mass of Ions in am
   POMASS = 195.08 12.01  1.00
  Ionic Valenz
   ZVAL   =  10.00  4.00  1.00
  Atomic Wigner-Seitz radii
   RWIGS  =  -1.00 -1.00 -1.00
  virtual crystal weights 
   VCA    =   1.00  1.00  1.00
   NELECT =     370.0000    total number of electrons
   NUPDOWN=      -1.0000    fix difference up-down

 DOS related values:
   EMIN   =  10.00;   EMAX   =-10.00  energy-range for DOS
   EFERMI =   0.00
   ISMEAR =    -1;   SIGMA  =   0.10  broadening in eV -4-tet -1-fermi 0-gaus

 Electronic relaxation 2 (details)
   IALGO  =     68    algorithm
   LDIAG  =      T    sub-space diagonalisation (order eigenvalues)
   LSUBROT=      F    optimize rotation matrix (better conditioning)
   TURBO    =      0    0=normal 1=particle mesh
   IRESTART =      0    0=no restart 2=restart with 2 vectors
   NREBOOT  =      0    no. of reboots
   NMIN     =      0    reboot dimension
   EREF     =   0.00    reference energy to select bands
   IMIX   =      4    mixing-type and parameters
     AMIX     =   0.40;   BMIX     =  1.00
     AMIX_MAG =   1.60;   BMIX_MAG =  1.00
     AMIN     =   0.10
     WC   =   100.;   INIMIX=   1;  MIXPRE=   1;  MAXMIX= -45

 Intra band minimization:
   WEIMIN = 0.0000     energy-eigenvalue tresh-hold
   EBREAK =  0.11E-08  absolut break condition
   DEPER  =   0.30     relativ break condition  

   TIME   =   0.40     timestep for ELM

  volume/ion in A,a.u.               =      33.59       226.69
  Fermi-wavevector in a.u.,A,eV,Ry     =   1.065066  2.012683 15.433976  1.134365
  Thomas-Fermi vector in A             =   2.200605
 
 Write flags
   LWAVE  =      F    write WAVECAR
   LCHARG =      F    write CHGCAR
   LVTOT  =      F    write LOCPOT, total local potential
   LVHAR  =      F    write LOCPOT, Hartree potential only
   LELF   =      F    write electronic localiz. function (ELF)
   LORBIT =      0    0 simple, 1 ext, 2 COOP (PROOUT)


 Dipole corrections
   LMONO  =      F    monopole corrections only (constant potential shift)
   LDIPOL =      F    correct potential (dipole corrections)
   IDIPOL =      0    1-x, 2-y, 3-z, 4-all directions 
   EPSILON=  1.0000000 bulk dielectric constant

 Exchange correlation treatment:
   GGA     =    PE    GGA type
   LEXCH   =     8    internal setting for exchange type
   VOSKOWN=      0    Vosko Wilk Nusair interpolation
   LHFCALC =     F    Hartree Fock is set to
   LHFONE  =     F    Hartree Fock one center treatment
   AEXX    =    0.0000 exact exchange contribution

 Linear response parameters
   LEPSILON=     F    determine dielectric tensor
   LRPA    =     F    only Hartree local field effects (RPA)
   LNABLA  =     F    use nabla operator in PAW spheres
   LVEL    =     F    velocity operator in full k-point grid
   LINTERFAST=   F  fast interpolation
   KINTER  =     0    interpolate to denser k-point grid
   CSHIFT  =0.1000    complex shift for real part using Kramers Kronig
   OMEGAMAX=  -1.0    maximum frequency
   DEG_THRESHOLD= 0.2000000E-02 threshold for treating states as degnerate
   RTIME   =    0.100 relaxation time in fs

 Orbital magnetization related:
   ORBITALMAG=     F  switch on orbital magnetization
   LCHIMAG   =     F  perturbation theory with respect to B field
   DQ        =  0.001000  dq finite difference perturbation B field



--------------------------------------------------------------------------------------------------------


 Static calculation
 charge density and potential will be updated during run
 non-spin polarized calculation
 RMM-DIIS sequential band-by-band and
  variant of blocked Davidson during initial phase
 perform sub-space diagonalisation
    before iterative eigenvector-optimisation
 modified Broyden-mixing scheme, WC =      100.0
 initial mixing is a Kerker type mixing with AMIX =  0.4000 and BMIX =      1.0000
 Hartree-type preconditioning will be used
 using additional bands           40
 real space projection scheme for non local part
 use partial core corrections
 calculate Harris-corrections to forces 
   (improved forces if not selfconsistent)
 use gradient corrections 
 use of overlap-Matrix (Vanderbilt PP)
 Fermi-smearing in eV        SIGMA  =   0.10


--------------------------------------------------------------------------------------------------------


  energy-cutoff  :      400.00
  volume of cell :     1343.68
      direct lattice vectors                 reciprocal lattice vectors
     8.421641764  0.000000000  0.000000000     0.118741693 -0.068555548  0.000000000
     4.210820882  7.293355709  0.000000000     0.000000000  0.137111097  0.000000000
     0.000000000  0.000000000 21.876241706     0.000000000  0.000000000  0.045711691

  length of vectors
     8.421641764  8.421641764 21.876241706     0.137111097  0.137111097  0.045711691


 
 k-points in units of 2pi/SCALE and weight: KPOINTS created by Atomic Simulation Env
   0.00989514  0.00571296  0.00000000       0.019
   0.00000000  0.01142592  0.00000000       0.019
  -0.00989514  0.00571296  0.00000000       0.019
   0.02968542 -0.00571296  0.00000000       0.019
   0.01979028  0.02285185  0.00000000       0.019
  -0.00989514  0.02856481  0.00000000       0.019
   0.01979028 -0.02285185  0.00000000       0.019
  -0.00989514 -0.02856481  0.00000000       0.019
  -0.02968542 -0.00571296  0.00000000       0.019
   0.04947571 -0.01713889  0.00000000       0.019
   0.03958056  0.03427777  0.00000000       0.019
  -0.00989514  0.05141666  0.00000000       0.019
   0.03958056 -0.03427777  0.00000000       0.019
  -0.00989514 -0.05141666  0.00000000       0.019
  -0.04947571 -0.01713889  0.00000000       0.019
  -0.04947571  0.03999074  0.00000000       0.019
   0.05937085 -0.09140740  0.00000000       0.019
  -0.00989514  0.07426851  0.00000000       0.019
   0.05937085 -0.04570370  0.00000000       0.019
  -0.00989514  0.06284259  0.00000000       0.019
   0.04947571  0.03999074  0.00000000       0.019
  -0.02968542  0.02856481  0.00000000       0.019
  -0.03958056 -0.01142592  0.00000000       0.019
  -0.00989514 -0.03999074  0.00000000       0.019
  -0.03958056  0.01142592  0.00000000       0.019
  -0.00989514  0.03999074  0.00000000       0.019
   0.02968542  0.02856481  0.00000000       0.019
  -0.00989514  0.01713889  0.00000000       0.019
  -0.01979028  0.00000000  0.00000000       0.019
  -0.00989514 -0.01713889  0.00000000       0.019
   0.02968542  0.01713889  0.00000000       0.019
   0.00000000  0.03427777  0.00000000       0.019
  -0.02968542  0.01713889  0.00000000       0.019
   0.04947571  0.00571296  0.00000000       0.019
   0.01979028  0.04570370  0.00000000       0.019
  -0.02968542  0.03999074  0.00000000       0.019
   0.01979028 -0.04570370  0.00000000       0.019
  -0.02968542 -0.03999074  0.00000000       0.019
  -0.04947571  0.00571296  0.00000000       0.019
  -0.04947571  0.06284259  0.00000000       0.019
   0.03958056 -0.07998147  0.00000000       0.019
  -0.02968542  0.06284259  0.00000000       0.019
   0.03958056 -0.05712962  0.00000000       0.019
  -0.02968542  0.07426851  0.00000000       0.019
   0.04947571 -0.07426851  0.00000000       0.019
  -0.02968542  0.05141666  0.00000000       0.019
   0.05937085 -0.06855555  0.00000000       0.019
  -0.02968542  0.08569444  0.00000000       0.019
   0.04947571  0.02856481  0.00000000       0.019
   0.00000000  0.05712962  0.00000000       0.019
  -0.04947571  0.02856481  0.00000000       0.019
  -0.04947571  0.08569444  0.00000000       0.019
   0.01979028 -0.06855555  0.00000000       0.019
  -0.04947571  0.05141666  0.00000000       0.019
 
 k-points in reciprocal lattice and weights: KPOINTS created by Atomic Simulation Env
   0.08333333  0.08333333  0.00000000       0.019
   0.00000000  0.08333333  0.00000000       0.019
  -0.08333333  0.00000000  0.00000000       0.019
   0.25000000  0.08333333  0.00000000       0.019
   0.16666667  0.25000000  0.00000000       0.019
  -0.08333333  0.16666667  0.00000000       0.019
   0.16666667 -0.08333333  0.00000000       0.019
  -0.08333333 -0.25000000  0.00000000       0.019
  -0.25000000 -0.16666667  0.00000000       0.019
   0.41666667  0.08333333  0.00000000       0.019
   0.33333333  0.41666667  0.00000000       0.019
  -0.08333333  0.33333333  0.00000000       0.019
   0.33333333 -0.08333333  0.00000000       0.019
  -0.08333333 -0.41666667  0.00000000       0.019
  -0.41666667 -0.33333333  0.00000000       0.019
  -0.41666667  0.08333333  0.00000000       0.019
   0.50000000 -0.41666667  0.00000000       0.019
  -0.08333333  0.50000000  0.00000000       0.019
   0.50000000 -0.08333333  0.00000000       0.019
  -0.08333333  0.41666667  0.00000000       0.019
   0.41666667  0.50000000  0.00000000       0.019
  -0.25000000  0.08333333  0.00000000       0.019
  -0.33333333 -0.25000000  0.00000000       0.019
  -0.08333333 -0.33333333  0.00000000       0.019
  -0.33333333 -0.08333333  0.00000000       0.019
  -0.08333333  0.25000000  0.00000000       0.019
   0.25000000  0.33333333  0.00000000       0.019
  -0.08333333  0.08333333  0.00000000       0.019
  -0.16666667 -0.08333333  0.00000000       0.019
  -0.08333333 -0.16666667  0.00000000       0.019
   0.25000000  0.25000000  0.00000000       0.019
   0.00000000  0.25000000  0.00000000       0.019
  -0.25000000  0.00000000  0.00000000       0.019
   0.41666667  0.25000000  0.00000000       0.019
   0.16666667  0.41666667  0.00000000       0.019
  -0.25000000  0.16666667  0.00000000       0.019
   0.16666667 -0.25000000  0.00000000       0.019
  -0.25000000 -0.41666667  0.00000000       0.019
  -0.41666667 -0.16666667  0.00000000       0.019
  -0.41666667  0.25000000  0.00000000       0.019
   0.33333333 -0.41666667  0.00000000       0.019
  -0.25000000  0.33333333  0.00000000       0.019
   0.33333333 -0.25000000  0.00000000       0.019
  -0.25000000  0.41666667  0.00000000       0.019
   0.41666667 -0.33333333  0.00000000       0.019
  -0.25000000  0.25000000  0.00000000       0.019
   0.50000000 -0.25000000  0.00000000       0.019
  -0.25000000  0.50000000  0.00000000       0.019
   0.41666667  0.41666667  0.00000000       0.019
   0.00000000  0.41666667  0.00000000       0.019
  -0.41666667 -0.00000000  0.00000000       0.019
  -0.41666667  0.41666667  0.00000000       0.019
   0.16666667 -0.41666667  0.00000000       0.019
  -0.41666667  0.16666667  0.00000000       0.019
 
 position of ions in fractional coordinates (direct lattice) 
   0.00000000  0.00000000  0.34283768
   0.33333333  0.00000000  0.34283768
   0.66666667  0.00000000  0.34283768
   0.00000000  0.33333333  0.34283768
   0.33333333  0.33333333  0.34283768
   0.66666667  0.33333333  0.34283768
   0.00000000  0.66666667  0.34283768
   0.33333333  0.66666667  0.34283768
   0.66666667  0.66666667  0.34283768
   0.11111111  0.11111111  0.44761256
   0.44444444  0.11111111  0.44761256
   0.77777778  0.11111111  0.44761256
   0.11111111  0.44444444  0.44761256
   0.44444444  0.44444444  0.44761256
   0.77777778  0.44444444  0.44761256
   0.11111111  0.77777778  0.44761256
   0.44444444  0.77777778  0.44761256
   0.77777778  0.77777778  0.44761256
   0.88820547  0.22445954  0.55069151
   0.22300058  0.22368898  0.55243660
   0.55413284  0.22351347  0.55246309
   0.88845494  0.55825915  0.55088862
   0.22322365  0.55443862  0.55361985
   0.55412996  0.55813005  0.55089261
   0.88602044  0.89277274  0.55179515
   0.22204129  0.89281562  0.55181993
   0.55448833  0.89190382  0.55192433
   0.99710327  0.00655955  0.65657390
   0.32708936  0.00099583  0.66136048
   0.67293263  0.00075883  0.66136971
   0.99439822  0.34044797  0.65546069
   0.31975499  0.36159996  0.66267053
   0.66619260  0.34065839  0.65539671
   0.99317481  0.67754274  0.65673724
   0.33056111  0.67760331  0.65672030
   0.66700731  0.66749242  0.65596318
   0.37651796  0.24841292  0.75608303
   0.44478329  0.11145449  0.71041659
   0.47088025  0.28042251  0.78019430
   0.25004709  0.28100466  0.78023262
 
 position of ions in cartesian coordinates  (Angst):
   0.00000000  0.00000000  7.50000000
   2.80721392  0.00000000  7.50000000
   5.61442784  0.00000000  7.50000000
   1.40360696  2.43111857  7.50000000
   4.21082088  2.43111857  7.50000000
   7.01803480  2.43111857  7.50000000
   2.80721392  4.86223714  7.50000000
   5.61442784  4.86223714  7.50000000
   8.42164176  4.86223714  7.50000000
   1.40360696  0.81037286  9.79208057
   4.21082088  0.81037286  9.79208057
   7.01803480  0.81037286  9.79208057
   2.80721392  3.24149143  9.79208057
   5.61442784  3.24149143  9.79208057
   8.42164176  3.24149143  9.79208057
   4.21082088  5.67261000  9.79208057
   7.01803480  5.67261000  9.79208057
   9.82524872  5.67261000  9.79208057
   8.42530714  1.63706324 12.04706052
   2.81994523  1.63144326 12.08523665
   5.60788346  1.63016325 12.08581601
   9.83297849  4.07158256 12.05137269
   4.21455137  4.04371806 12.11112168
   7.01686970  4.07064100 12.05145994
  11.22105287  6.51130915 12.07120403
   5.62943889  6.51162192 12.07174607
   8.42534931  6.50497183 12.07403000
   8.42486761  0.04784115 14.36336934
   2.75882267  0.00726297 14.46808162
   5.67039282  0.00553440 14.46828363
   9.80803095  2.48300812 14.33901641
   4.21549463  2.63727712 14.49674075
   7.04488689  2.48454283 14.33761681
  11.21717353  4.94156020 14.36694253
   5.63713342  4.94200194 14.36657191
   8.42798768  4.86825969 14.35000915
   4.21692163  1.81176375 16.54025517
   4.21512040  0.81287727 15.54124506
   5.14639372  2.04522110 17.06771918
   3.28906729  2.04946693 17.06855732
 


--------------------------------------------------------------------------------------------------------


 k-point  1 :   0.0833 0.0833 0.0000  plane waves:   24413
 k-point  2 :   0.0000 0.0833 0.0000  plane waves:   24413
 k-point  3 :  -0.0833 0.0000 0.0000  plane waves:   24413
 k-point  4 :   0.2500 0.0833 0.0000  plane waves:   24407
 k-point  5 :   0.1667 0.2500 0.0000  plane waves:   24407
 k-point  6 :  -0.0833 0.1667 0.0000  plane waves:   24407
 k-point  7 :   0.1667-0.0833 0.0000  plane waves:   24407
 k-point  8 :  -0.0833-0.2500 0.0000  plane waves:   24407
 k-point  9 :  -0.2500-0.1667 0.0000  plane waves:   24407
 k-point 10 :   0.4167 0.0833 0.0000  plane waves:   24416
 k-point 11 :   0.3333 0.4167 0.0000  plane waves:   24416
 k-point 12 :  -0.0833 0.3333 0.0000  plane waves:   24416
 k-point 13 :   0.3333-0.0833 0.0000  plane waves:   24416
 k-point 14 :  -0.0833-0.4167 0.0000  plane waves:   24416
 k-point 15 :  -0.4167-0.3333 0.0000  plane waves:   24416
 k-point 16 :  -0.4167 0.0833 0.0000  plane waves:   24418
 k-point 17 :   0.5000-0.4167 0.0000  plane waves:   24418
 k-point 18 :  -0.0833 0.5000 0.0000  plane waves:   24418
 k-point 19 :   0.5000-0.0833 0.0000  plane waves:   24418
 k-point 20 :  -0.0833 0.4167 0.0000  plane waves:   24418
 k-point 21 :   0.4167 0.5000 0.0000  plane waves:   24418
 k-point 22 :  -0.2500 0.0833 0.0000  plane waves:   24416
 k-point 23 :  -0.3333-0.2500 0.0000  plane waves:   24416
 k-point 24 :  -0.0833-0.3333 0.0000  plane waves:   24416
 k-point 25 :  -0.3333-0.0833 0.0000  plane waves:   24416
 k-point 26 :  -0.0833 0.2500 0.0000  plane waves:   24416
 k-point 27 :   0.2500 0.3333 0.0000  plane waves:   24416
 k-point 28 :  -0.0833 0.0833 0.0000  plane waves:   24411
 k-point 29 :  -0.1667-0.0833 0.0000  plane waves:   24411
 k-point 30 :  -0.0833-0.1667 0.0000  plane waves:   24411
 k-point 31 :   0.2500 0.2500 0.0000  plane waves:   24440
 k-point 32 :   0.0000 0.2500 0.0000  plane waves:   24440
 k-point 33 :  -0.2500 0.0000 0.0000  plane waves:   24440
 k-point 34 :   0.4167 0.2500 0.0000  plane waves:   24406
 k-point 35 :   0.1667 0.4167 0.0000  plane waves:   24406
 k-point 36 :  -0.2500 0.1667 0.0000  plane waves:   24406
 k-point 37 :   0.1667-0.2500 0.0000  plane waves:   24406
 k-point 38 :  -0.2500-0.4167 0.0000  plane waves:   24406
 k-point 39 :  -0.4167-0.1667 0.0000  plane waves:   24406
 k-point 40 :  -0.4167 0.2500 0.0000  plane waves:   24402
 k-point 41 :   0.3333-0.4167 0.0000  plane waves:   24402
 k-point 42 :  -0.2500 0.3333 0.0000  plane waves:   24402
 k-point 43 :   0.3333-0.2500 0.0000  plane waves:   24402
 k-point 44 :  -0.2500 0.4167 0.0000  plane waves:   24402
 k-point 45 :   0.4167-0.3333 0.0000  plane waves:   24402
 k-point 46 :  -0.2500 0.2500 0.0000  plane waves:   24390
 k-point 47 :   0.5000-0.2500 0.0000  plane waves:   24390
 k-point 48 :  -0.2500 0.5000 0.0000  plane waves:   24390
 k-point 49 :   0.4167 0.4167 0.0000  plane waves:   24430
 k-point 50 :   0.0000 0.4167 0.0000  plane waves:   24430
 k-point 51 :  -0.4167-0.0000 0.0000  plane waves:   24430
 k-point 52 :  -0.4167 0.4167 0.0000  plane waves:   24404
 k-point 53 :   0.1667-0.4167 0.0000  plane waves:   24404
 k-point 54 :  -0.4167 0.1667 0.0000  plane waves:   24404

 maximum and minimum number of plane-waves per node :      6146     6048

 maximum number of plane-waves:     24440
 maximum index in each direction: 
   IXMAX=   14   IYMAX=   14   IZMAX=   35
   IXMIN=  -14   IYMIN=  -14   IZMIN=  -35

 WARNING: aliasing errors must be expected set NGX to  58 to avoid them
 WARNING: aliasing errors must be expected set NGY to  58 to avoid them
 WARNING: aliasing errors must be expected set NGZ to 142 to avoid them
 aliasing errors are usually negligible using standard VASP settings
 and one can safely disregard these warnings

 real space projection operators:
  total allocation   :      10243.91 KBytes
  max/ min on nodes  :       2697.88       2445.20


 parallel 3D FFT for wavefunctions:
    minimum data exchange during FFTs selected (reduces bandwidth)
 parallel 3D FFT for charge:
    minimum data exchange during FFTs selected (reduces bandwidth)


 total amount of memory used by VASP on root node   291971. kBytes
========================================================================

   base      :      30000. kBytes
   nonlr-proj:       4721. kBytes
   fftplans  :       4497. kBytes
   grid      :       7849. kBytes
   one-center:        155. kBytes
   wavefun   :     244749. kBytes
 
     INWAV:  cpu time    0.0000: real time    0.0000
 Broyden mixing: mesh for mixing (old mesh)
   NGX = 27   NGY = 27   NGZ = 71
  (NGX  = 84   NGY  = 84   NGZ  =216)
  gives a total of  51759 points

 initial charge density was supplied:
 charge density of overlapping atoms calculated
 number of electron     370.0000000 magnetization 
 keeping initial charge density in first step


--------------------------------------------------------------------------------------------------------


 Maximum index for non-local projection operator          589
 Maximum index for augmentation-charges          872 (set IRDMAX)


--------------------------------------------------------------------------------------------------------


 First call to EWALD:  gamma=   0.161
 Maximum number of real-space cells 4x 4x 2
 Maximum number of reciprocal cells 2x 2x 5

 FEWALD executed in parallel
    FEWALD:  cpu time    0.0020: real time    0.0027


----------------------------------------- Iteration    1(   1)  ---------------------------------------


    POTLOK:  cpu time    0.7869: real time    0.7873
    SETDIJ:  cpu time    0.0080: real time    0.0083
     EDDAV:  cpu time   74.1767: real time   74.8365
       DOS:  cpu time    0.0020: real time    0.0026
    --------------------------------------------
      LOOP:  cpu time   74.9756: real time   75.6470

 eigenvalue-minimisations  : 24330
 total energy-change (2. order) : 0.2201117E+04  (-0.1465685E+05)
 number of electron     370.0000000 magnetization 
 augmentation part      370.0000000 magnetization 

 Free energy of the ion-electron system (eV)
  ---------------------------------------------------
  alpha Z        PSCENC =       954.96919766
  Ewald energy   TEWEN  =     92433.63302684
  -Hartree energ DENC   =   -120850.75723951
  -exchange      EXHF   =         0.00000000
  -V(xc)+E(xc)   XCENC  =       152.47187840
  PAW double counting   =     25281.75942305   -24264.71933415
  entropy T*S    EENTRO =        -0.56937762
  eigenvalues    EBANDS =      1927.08788909
  atomic energy  EATOM  =     26567.24197818
  Solvation  Ediel_sol  =         0.00000000
  ---------------------------------------------------
  free energy    TOTEN  =      2201.11744193 eV

  energy without entropy =     2201.68681955  energy(sigma->0) =     2201.40213074


--------------------------------------------------------------------------------------------------------




----------------------------------------- Iteration    1(   2)  ---------------------------------------


     EDDAV:  cpu time  102.3754: real time  102.8562
       DOS:  cpu time    0.0030: real time    0.0031
    --------------------------------------------
      LOOP:  cpu time  102.3804: real time  102.9636

 eigenvalue-minimisations  : 28330
 total energy-change (2. order) :-0.2288996E+04  (-0.2115626E+04)
 number of electron     370.0000000 magnetization 
 augmentation part      370.0000000 magnetization 

 Free energy of the ion-electron system (eV)
  ---------------------------------------------------
  alpha Z        PSCENC =       954.96919766
  Ewald energy   TEWEN  =     92433.63302684
  -Hartree energ DENC   =   -120850.75723951
  -exchange      EXHF   =         0.00000000
  -V(xc)+E(xc)   XCENC  =       152.47187840
  PAW double counting   =     25281.75942305   -24264.71933415
  entropy T*S    EENTRO =        -1.10084728
  eigenvalues    EBANDS =      -361.37664842
  atomic energy  EATOM  =     26567.24197818
  Solvation  Ediel_sol  =         0.00000000
  ---------------------------------------------------
  free energy    TOTEN  =       -87.87856524 eV

  energy without entropy =      -86.77771796  energy(sigma->0) =      -87.32814160


--------------------------------------------------------------------------------------------------------




----------------------------------------- Iteration    1(   3)  ---------------------------------------


     EDDAV:  cpu time   87.3397: real time   87.6952
       DOS:  cpu time    0.0030: real time    0.0032
    --------------------------------------------
      LOOP:  cpu time   87.3447: real time   87.7893

 eigenvalue-minimisations  : 29090
 total energy-change (2. order) :-0.1581108E+03  (-0.1433779E+03)
 number of electron     370.0000000 magnetization 
 augmentation part      370.0000000 magnetization 

 Free energy of the ion-electron system (eV)
  ---------------------------------------------------
  alpha Z        PSCENC =       954.96919766
  Ewald energy   TEWEN  =     92433.63302684
  -Hartree energ DENC   =   -120850.75723951
  -exchange      EXHF   =         0.00000000
  -V(xc)+E(xc)   XCENC  =       152.47187840
  PAW double counting   =     25281.75942305   -24264.71933415
  entropy T*S    EENTRO =        -1.86427572
  eigenvalues    EBANDS =      -518.72401203
  atomic energy  EATOM  =     26567.24197818
  Solvation  Ediel_sol  =         0.00000000
  ---------------------------------------------------
  free energy    TOTEN  =      -245.98935728 eV

  energy without entropy =     -244.12508157  energy(sigma->0) =     -245.05721943


--------------------------------------------------------------------------------------------------------




----------------------------------------- Iteration    1(   4)  ---------------------------------------


     EDDAV:  cpu time   90.3383: real time   90.3275
       DOS:  cpu time    0.0040: real time    0.0037
    CHARGE:  cpu time    2.3716: real time    2.3705
    MIXING:  cpu time    0.0740: real time    0.0845
    --------------------------------------------
      LOOP:  cpu time   92.7889: real time   92.7997

 eigenvalue-minimisations  : 31280
 total energy-change (2. order) :-0.6809251E+01  (-0.6596464E+01)
 number of electron     370.0000007 magnetization 
 augmentation part      104.5774446 magnetization 

 Broyden mixing:
  rms(total) = 0.64639E+01    rms(broyden)= 0.64638E+01
  rms(prec ) = 0.65836E+01
  weight for this iteration     100.00

 Free energy of the ion-electron system (eV)
  ---------------------------------------------------
  alpha Z        PSCENC =       954.96919766
  Ewald energy   TEWEN  =     92433.63302684
  -Hartree energ DENC   =   -120850.75723951
  -exchange      EXHF   =         0.00000000
  -V(xc)+E(xc)   XCENC  =       152.47187840
  PAW double counting   =     25281.75942305   -24264.71933415
  entropy T*S    EENTRO =        -1.91389910
  eigenvalues    EBANDS =      -525.48363932
  atomic energy  EATOM  =     26567.24197818
  Solvation  Ediel_sol  =         0.00000000
  ---------------------------------------------------
  free energy    TOTEN  =      -252.79860796 eV

  energy without entropy =     -250.88470886  energy(sigma->0) =     -251.84165841


--------------------------------------------------------------------------------------------------------




----------------------------------------- Iteration    1(   5)  ---------------------------------------


    POTLOK:  cpu time    0.9119: real time    0.9722
    SETDIJ:  cpu time    0.0080: real time    0.0082
    EDDIAG:  cpu time   10.9343: real time   10.9744
  RMM-DIIS:  cpu time   28.8816: real time   28.8726
    ORTHCH:  cpu time    3.0245: real time    3.0542
       DOS:  cpu time    0.0040: real time    0.0037
    CHARGE:  cpu time    2.3466: real time    2.3451
    MIXING:  cpu time    0.0020: real time    0.0021
    --------------------------------------------
      LOOP:  cpu time   46.1140: real time   46.3634

 eigenvalue-minimisations  : 25767
 total energy-change (2. order) : 0.1187226E+02  (-0.5557895E+01)
 number of electron     370.0000029 magnetization 
 augmentation part      111.3545352 magnetization 

 Broyden mixing:
  rms(total) = 0.43671E+01    rms(broyden)= 0.43670E+01
  rms(prec ) = 0.46470E+01
  weight for this iteration     100.00

 eigenvalues of (default mixing * dielectric matrix)
  average eigenvalue GAMMA=   1.3042
  1.3042

 Free energy of the ion-electron system (eV)
  ---------------------------------------------------
  alpha Z        PSCENC =       954.96919766
  Ewald energy   TEWEN  =     92433.63302684
  -Hartree energ DENC   =   -120416.42181651
  -exchange      EXHF   =         0.00000000
  -V(xc)+E(xc)   XCENC  =       143.92831529
  PAW double counting   =     28102.67846495   -27139.00927821
  entropy T*S    EENTRO =        -1.98683346
  eigenvalues    EBANDS =      -885.95940564
  atomic energy  EATOM  =     26567.24197818
  Solvation  Ediel_sol  =         0.00000000
  ---------------------------------------------------
  free energy    TOTEN  =      -240.92635091 eV

  energy without entropy =     -238.93951745  energy(sigma->0) =     -239.93293418


--------------------------------------------------------------------------------------------------------




----------------------------------------- Iteration    1(   6)  ---------------------------------------


    POTLOK:  cpu time    0.0560: real time    0.0562
    SETDIJ:  cpu time    0.0770: real time    0.0767
    EDDIAG:  cpu time   15.1187: real time   15.1639
  RMM-DIIS:  cpu time   28.2947: real time   28.8506
    ORTHCH:  cpu time    3.0935: real time    3.1034
       DOS:  cpu time    0.0030: real time    0.0034
    CHARGE:  cpu time    2.4226: real time    2.4210
    MIXING:  cpu time    0.0020: real time    0.0021
    --------------------------------------------
      LOOP:  cpu time   49.0695: real time   49.7090

 eigenvalue-minimisations  : 25793
 total energy-change (2. order) :-0.4210986E+02  (-0.7396431E+01)
 number of electron     369.9999979 magnetization 
 augmentation part      109.0747426 magnetization 

 Broyden mixing:
  rms(total) = 0.56776E+01    rms(broyden)= 0.56774E+01
  rms(prec ) = 0.69798E+01
  weight for this iteration     100.00

 eigenvalues of (default mixing * dielectric matrix)
  average eigenvalue GAMMA=   1.1064
  1.9325  0.2803

 Free energy of the ion-electron system (eV)
  ---------------------------------------------------
  alpha Z        PSCENC =       954.96919766
  Ewald energy   TEWEN  =     92433.63302684
  -Hartree energ DENC   =   -120737.84703272
  -exchange      EXHF   =         0.00000000
  -V(xc)+E(xc)   XCENC  =       141.59759429
  PAW double counting   =     30139.64750867   -29196.51894332
  entropy T*S    EENTRO =        -1.16361968
  eigenvalues    EBANDS =      -584.59591869
  atomic energy  EATOM  =     26567.24197818
  Solvation  Ediel_sol  =         0.00000000
  ---------------------------------------------------
  free energy    TOTEN  =      -283.03620877 eV

  energy without entropy =     -281.87258909  energy(sigma->0) =     -282.45439893


--------------------------------------------------------------------------------------------------------




----------------------------------------- Iteration    1(   7)  ---------------------------------------


    POTLOK:  cpu time    0.1250: real time    0.1425
    SETDIJ:  cpu time    0.0080: real time    0.0081
    EDDIAG:  cpu time   10.6754: real time   10.7406
  RMM-DIIS:  cpu time   28.3447: real time   28.6615
    ORTHCH:  cpu time    2.9635: real time    3.0031
       DOS:  cpu time    0.0030: real time    0.0034
    CHARGE:  cpu time    2.4056: real time    2.4037
    MIXING:  cpu time    0.0020: real time    0.0023
    --------------------------------------------
      LOOP:  cpu time   44.5302: real time   45.0748

 eigenvalue-minimisations  : 25144
 total energy-change (2. order) : 0.4094493E+02  (-0.3015365E+01)
 number of electron     369.9999998 magnetization 
 augmentation part      112.1921772 magnetization 

 Broyden mixing:
  rms(total) = 0.24492E+01    rms(broyden)= 0.24491E+01
  rms(prec ) = 0.31430E+01
  weight for this iteration     100.00

 eigenvalues of (default mixing * dielectric matrix)
  average eigenvalue GAMMA=   0.9360
  2.0368  0.4611  0.3102

 Free energy of the ion-electron system (eV)
  ---------------------------------------------------
  alpha Z        PSCENC =       954.96919766
  Ewald energy   TEWEN  =     92433.63302684
  -Hartree energ DENC   =   -120492.28059075
  -exchange      EXHF   =         0.00000000
  -V(xc)+E(xc)   XCENC  =       140.20024009
  PAW double counting   =     31828.95085779   -30907.10815377
  entropy T*S    EENTRO =        -1.66437034
  eigenvalues    EBANDS =      -766.03346126
  atomic energy  EATOM  =     26567.24197818
  Solvation  Ediel_sol  =         0.00000000
  ---------------------------------------------------
  free energy    TOTEN  =      -242.09127556 eV

  energy without entropy =     -240.42690522  energy(sigma->0) =     -241.25909039


--------------------------------------------------------------------------------------------------------




----------------------------------------- Iteration    1(   8)  ---------------------------------------


    POTLOK:  cpu time    0.0570: real time    0.0578
    SETDIJ:  cpu time    0.0090: real time    0.0082
    EDDIAG:  cpu time   10.6624: real time   10.6545
  RMM-DIIS:  cpu time   28.9446: real time   29.2239
    ORTHCH:  cpu time    3.0205: real time    3.0655
       DOS:  cpu time    0.0030: real time    0.0035
    CHARGE:  cpu time    2.3706: real time    2.3682
    MIXING:  cpu time    0.0020: real time    0.0023
    --------------------------------------------
      LOOP:  cpu time   45.0701: real time   45.4067

 eigenvalue-minimisations  : 25830
 total energy-change (2. order) :-0.8602082E+01  (-0.1854282E+01)
 number of electron     370.0000002 magnetization 
 augmentation part      112.2335347 magnetization 

 Broyden mixing:
  rms(total) = 0.34916E+01    rms(broyden)= 0.34915E+01
  rms(prec ) = 0.53186E+01
  weight for this iteration     100.00

 eigenvalues of (default mixing * dielectric matrix)
  average eigenvalue GAMMA=   0.8713
  2.1944  0.8333  0.2927  0.1647

 Free energy of the ion-electron system (eV)
  ---------------------------------------------------
  alpha Z        PSCENC =       954.96919766
  Ewald energy   TEWEN  =     92433.63302684
  -Hartree energ DENC   =   -120460.50206146
  -exchange      EXHF   =         0.00000000
  -V(xc)+E(xc)   XCENC  =       140.46917450
  PAW double counting   =     32165.54922090   -31246.46055140
  entropy T*S    EENTRO =        -1.28703941
  eigenvalues    EBANDS =      -804.30630329
  atomic energy  EATOM  =     26567.24197818
  Solvation  Ediel_sol  =         0.00000000
  ---------------------------------------------------
  free energy    TOTEN  =      -250.69335748 eV

  energy without entropy =     -249.40631808  energy(sigma->0) =     -250.04983778


--------------------------------------------------------------------------------------------------------




----------------------------------------- Iteration    1(   9)  ---------------------------------------


    POTLOK:  cpu time    0.8269: real time    0.9172
    SETDIJ:  cpu time    0.0080: real time    0.0082
    EDDIAG:  cpu time   10.7154: real time   10.7170
  RMM-DIIS:  cpu time   29.4235: real time   29.9503
    ORTHCH:  cpu time    2.9525: real time    3.0948
       DOS:  cpu time    0.0040: real time    0.0034
    CHARGE:  cpu time    2.2937: real time    2.3581
    MIXING:  cpu time    0.0020: real time    0.0024
    --------------------------------------------
      LOOP:  cpu time   46.2280: real time   47.1374

 eigenvalue-minimisations  : 25931
 total energy-change (2. order) : 0.6905782E+01  (-0.1062382E+01)
 number of electron     370.0000032 magnetization 
 augmentation part      112.1131248 magnetization 

 Broyden mixing:
  rms(total) = 0.27829E+01    rms(broyden)= 0.27827E+01
  rms(prec ) = 0.37083E+01
  weight for this iteration     100.00

 eigenvalues of (default mixing * dielectric matrix)
  average eigenvalue GAMMA=   0.7922
  2.3399  0.9670  0.2641  0.2641  0.1262

 Free energy of the ion-electron system (eV)
  ---------------------------------------------------
  alpha Z        PSCENC =       954.96919766
  Ewald energy   TEWEN  =     92433.63302684
  -Hartree energ DENC   =   -120481.11122234
  -exchange      EXHF   =         0.00000000
  -V(xc)+E(xc)   XCENC  =       140.72620022
  PAW double counting   =     32475.02369658   -31557.93915537
  entropy T*S    EENTRO =        -1.84126675
  eigenvalues    EBANDS =      -774.49003017
  atomic energy  EATOM  =     26567.24197818
  Solvation  Ediel_sol  =         0.00000000
  ---------------------------------------------------
  free energy    TOTEN  =      -243.78757517 eV

  energy without entropy =     -241.94630841  energy(sigma->0) =     -242.86694179


--------------------------------------------------------------------------------------------------------




----------------------------------------- Iteration    1(  10)  ---------------------------------------


    POTLOK:  cpu time    0.0570: real time    0.0579
    SETDIJ:  cpu time    0.0080: real time    0.0082
    EDDIAG:  cpu time   10.7264: real time   10.7176
  RMM-DIIS:  cpu time   29.4765: real time   29.4555
    ORTHCH:  cpu time    3.0755: real time    3.0847
       DOS:  cpu time    0.0040: real time    0.0034
    CHARGE:  cpu time    2.3536: real time    2.3522
    MIXING:  cpu time    0.0030: real time    0.0025
    --------------------------------------------
      LOOP:  cpu time   45.7051: real time   45.6962

 eigenvalue-minimisations  : 25088
 total energy-change (2. order) : 0.7944552E+01  (-0.3613099E+00)
 number of electron     370.0000014 magnetization 
 augmentation part      112.2410399 magnetization 

 Broyden mixing:
  rms(total) = 0.10415E+01    rms(broyden)= 0.10414E+01
  rms(prec ) = 0.11983E+01
  weight for this iteration     100.00

 eigenvalues of (default mixing * dielectric matrix)
  average eigenvalue GAMMA=   0.7175
  2.2169  0.9659  0.3465  0.3273  0.3273  0.1208

 Free energy of the ion-electron system (eV)
  ---------------------------------------------------
  alpha Z        PSCENC =       954.96919766
  Ewald energy   TEWEN  =     92433.63302684
  -Hartree energ DENC   =   -120493.30613570
  -exchange      EXHF   =         0.00000000
  -V(xc)+E(xc)   XCENC  =       140.80455133
  PAW double counting   =     32744.33035666   -31829.63177369
  entropy T*S    EENTRO =        -1.97667099
  eigenvalues    EBANDS =      -751.90755325
  atomic energy  EATOM  =     26567.24197818
  Solvation  Ediel_sol  =         0.00000000
  ---------------------------------------------------
  free energy    TOTEN  =      -235.84302297 eV

  energy without entropy =     -233.86635198  energy(sigma->0) =     -234.85468747


--------------------------------------------------------------------------------------------------------




----------------------------------------- Iteration    1(  11)  ---------------------------------------


    POTLOK:  cpu time    1.1238: real time    1.2838
    SETDIJ:  cpu time    0.0090: real time    0.0081
    EDDIAG:  cpu time   11.0363: real time   11.0633
  RMM-DIIS:  cpu time   29.7515: real time   29.9320
    ORTHCH:  cpu time    2.9815: real time    3.1329
       DOS:  cpu time    0.0040: real time    0.0036
    CHARGE:  cpu time    2.3396: real time    2.3493
    MIXING:  cpu time    0.0030: real time    0.0027
    --------------------------------------------
      LOOP:  cpu time   47.2498: real time   47.8842

 eigenvalue-minimisations  : 25538
 total energy-change (2. order) : 0.5851610E+00  (-0.1320419E+00)
 number of electron     370.0000016 magnetization 
 augmentation part      112.1878652 magnetization 

 Broyden mixing:
  rms(total) = 0.68913E+00    rms(broyden)= 0.68909E+00
  rms(prec ) = 0.78229E+00
  weight for this iteration     100.00

 eigenvalues of (default mixing * dielectric matrix)
  average eigenvalue GAMMA=   0.6763
  2.1052  0.9251  0.5534  0.4937  0.2681  0.2681  0.1208

 Free energy of the ion-electron system (eV)
  ---------------------------------------------------
  alpha Z        PSCENC =       954.96919766
  Ewald energy   TEWEN  =     92433.63302684
  -Hartree energ DENC   =   -120494.19312828
  -exchange      EXHF   =         0.00000000
  -V(xc)+E(xc)   XCENC  =       141.00383529
  PAW double counting   =     32633.51294599   -31717.32477541
  entropy T*S    EENTRO =        -2.06145903
  eigenvalues    EBANDS =      -752.03948324
  atomic energy  EATOM  =     26567.24197818
  Solvation  Ediel_sol  =         0.00000000
  ---------------------------------------------------
  free energy    TOTEN  =      -235.25786200 eV

  energy without entropy =     -233.19640297  energy(sigma->0) =     -234.22713248


--------------------------------------------------------------------------------------------------------




----------------------------------------- Iteration    1(  12)  ---------------------------------------


    POTLOK:  cpu time    0.0580: real time    0.0594
    SETDIJ:  cpu time    0.0080: real time    0.0081
    EDDIAG:  cpu time   10.9513: real time   11.0818
  RMM-DIIS:  cpu time   29.6235: real time   29.7288
    ORTHCH:  cpu time    3.1295: real time    3.1812
       DOS:  cpu time    0.0040: real time    0.0036
    CHARGE:  cpu time    2.3256: real time    2.3237
    MIXING:  cpu time    0.0020: real time    0.0028
    --------------------------------------------
      LOOP:  cpu time   46.1030: real time   46.4117

 eigenvalue-minimisations  : 26007
 total energy-change (2. order) : 0.2594885E+00  (-0.4442129E-01)
 number of electron     370.0000016 magnetization 
 augmentation part      112.1091707 magnetization 

 Broyden mixing:
  rms(total) = 0.42341E+00    rms(broyden)= 0.42339E+00
  rms(prec ) = 0.50296E+00
  weight for this iteration     100.00

 eigenvalues of (default mixing * dielectric matrix)
  average eigenvalue GAMMA=   0.6852
  2.1450  0.9014  0.7372  0.7372  0.2926  0.2926  0.1209  0.2547

 Free energy of the ion-electron system (eV)
  ---------------------------------------------------
  alpha Z        PSCENC =       954.96919766
  Ewald energy   TEWEN  =     92433.63302684
  -Hartree energ DENC   =   -120500.75749563
  -exchange      EXHF   =         0.00000000
  -V(xc)+E(xc)   XCENC  =       141.15508971
  PAW double counting   =     32545.49194042   -31628.15611784
  entropy T*S    EENTRO =        -2.07175214
  eigenvalues    EBANDS =      -746.50424068
  atomic energy  EATOM  =     26567.24197818
  Solvation  Ediel_sol  =         0.00000000
  ---------------------------------------------------
  free energy    TOTEN  =      -234.99837348 eV

  energy without entropy =     -232.92662134  energy(sigma->0) =     -233.96249741


--------------------------------------------------------------------------------------------------------




----------------------------------------- Iteration    1(  13)  ---------------------------------------


    POTLOK:  cpu time    0.8299: real time    0.8291
    SETDIJ:  cpu time    0.0910: real time    0.0907
    EDDIAG:  cpu time   10.7014: real time   10.7158
  RMM-DIIS:  cpu time   29.1216: real time   29.5945
    ORTHCH:  cpu time    3.0055: real time    3.0298
       DOS:  cpu time    0.0040: real time    0.0036
    CHARGE:  cpu time    2.3216: real time    2.3432
    MIXING:  cpu time    0.0030: real time    0.0029
    --------------------------------------------
      LOOP:  cpu time   46.0790: real time   46.6513

 eigenvalue-minimisations  : 25715
 total energy-change (2. order) : 0.1017358E+00  (-0.1942137E-01)
 number of electron     370.0000011 magnetization 
 augmentation part      112.0699387 magnetization 

 Broyden mixing:
  rms(total) = 0.22474E+00    rms(broyden)= 0.22472E+00
  rms(prec ) = 0.24767E+00
  weight for this iteration     100.00

 eigenvalues of (default mixing * dielectric matrix)
  average eigenvalue GAMMA=   0.7226
  2.1632  1.0910  1.0910  0.8251  0.3913  0.1209  0.2863  0.2863  0.2481

 Free energy of the ion-electron system (eV)
  ---------------------------------------------------
  alpha Z        PSCENC =       954.96919766
  Ewald energy   TEWEN  =     92433.63302684
  -Hartree energ DENC   =   -120511.86462326
  -exchange      EXHF   =         0.00000000
  -V(xc)+E(xc)   XCENC  =       141.16893066
  PAW double counting   =     32560.88312570   -31643.73445687
  entropy T*S    EENTRO =        -2.06263244
  eigenvalues    EBANDS =      -735.13118413
  atomic energy  EATOM  =     26567.24197818
  Solvation  Ediel_sol  =         0.00000000
  ---------------------------------------------------
  free energy    TOTEN  =      -234.89663767 eV

  energy without entropy =     -232.83400522  energy(sigma->0) =     -233.86532144


--------------------------------------------------------------------------------------------------------




----------------------------------------- Iteration    1(  14)  ---------------------------------------


    POTLOK:  cpu time    0.0580: real time    0.0583
    SETDIJ:  cpu time    0.0080: real time    0.0081
    EDDIAG:  cpu time   10.6354: real time   10.7516
  RMM-DIIS:  cpu time   31.4752: real time   31.7666
    ORTHCH:  cpu time    3.0755: real time    3.0934
       DOS:  cpu time    0.0030: real time    0.0035
    CHARGE:  cpu time    2.3536: real time    2.3539
    MIXING:  cpu time    0.0040: real time    0.0032
    --------------------------------------------
      LOOP:  cpu time   47.6148: real time   48.0610

 eigenvalue-minimisations  : 26116
 total energy-change (2. order) : 0.1080777E-01  (-0.8108406E-02)
 number of electron     370.0000010 magnetization 
 augmentation part      112.0261757 magnetization 

 Broyden mixing:
  rms(total) = 0.17658E+00    rms(broyden)= 0.17657E+00
  rms(prec ) = 0.22302E+00
  weight for this iteration     100.00

 eigenvalues of (default mixing * dielectric matrix)
  average eigenvalue GAMMA=   0.7366
  1.7898  1.4918  1.4918  0.6544  0.6544  0.1209  0.2957  0.2957  0.3252  0.2470

 Free energy of the ion-electron system (eV)
  ---------------------------------------------------
  alpha Z        PSCENC =       954.96919766
  Ewald energy   TEWEN  =     92433.63302684
  -Hartree energ DENC   =   -120525.36483475
  -exchange      EXHF   =         0.00000000
  -V(xc)+E(xc)   XCENC  =       141.22919154
  PAW double counting   =     32560.10497902   -31642.91989478
  entropy T*S    EENTRO =        -2.05526686
  eigenvalues    EBANDS =      -721.72420674
  atomic energy  EATOM  =     26567.24197818
  Solvation  Ediel_sol  =         0.00000000
  ---------------------------------------------------
  free energy    TOTEN  =      -234.88582989 eV

  energy without entropy =     -232.83056303  energy(sigma->0) =     -233.85819646


--------------------------------------------------------------------------------------------------------




----------------------------------------- Iteration    1(  15)  ---------------------------------------


    POTLOK:  cpu time    0.0560: real time    0.0573
    SETDIJ:  cpu time    0.0080: real time    0.0081
    EDDIAG:  cpu time   10.9233: real time   10.9346
  RMM-DIIS:  cpu time   29.6495: real time   29.6574
    ORTHCH:  cpu time    3.0445: real time    3.0524
       DOS:  cpu time    0.0030: real time    0.0035
    CHARGE:  cpu time    2.3176: real time    2.3152
    MIXING:  cpu time    0.0030: real time    0.0033
    --------------------------------------------
      LOOP:  cpu time   46.0060: real time   46.0453

 eigenvalue-minimisations  : 25806
 total energy-change (2. order) : 0.2168681E-01  (-0.1710837E-02)
 number of electron     370.0000011 magnetization 
 augmentation part      111.9958852 magnetization 

 Broyden mixing:
  rms(total) = 0.10940E+00    rms(broyden)= 0.10940E+00
  rms(prec ) = 0.12858E+00
  weight for this iteration     100.00

 eigenvalues of (default mixing * dielectric matrix)
  average eigenvalue GAMMA=   0.7732
  2.1366  2.1366  1.1861  0.7036  0.7036  0.1209  0.3935  0.2911  0.2911  0.2960
  0.2464

 Free energy of the ion-electron system (eV)
  ---------------------------------------------------
  alpha Z        PSCENC =       954.96919766
  Ewald energy   TEWEN  =     92433.63302684
  -Hartree energ DENC   =   -120531.99563452
  -exchange      EXHF   =         0.00000000
  -V(xc)+E(xc)   XCENC  =       141.32404409
  PAW double counting   =     32525.56670756   -31607.88920376
  entropy T*S    EENTRO =        -2.06452871
  eigenvalues    EBANDS =      -715.64973043
  atomic energy  EATOM  =     26567.24197818
  Solvation  Ediel_sol  =         0.00000000
  ---------------------------------------------------
  free energy    TOTEN  =      -234.86414309 eV

  energy without entropy =     -232.79961437  energy(sigma->0) =     -233.83187873


--------------------------------------------------------------------------------------------------------




----------------------------------------- Iteration    1(  16)  ---------------------------------------


    POTLOK:  cpu time    0.0570: real time    0.0575
    SETDIJ:  cpu time    0.0080: real time    0.0081
    EDDIAG:  cpu time   10.8633: real time   10.8756
  RMM-DIIS:  cpu time   29.8045: real time   29.8756
    ORTHCH:  cpu time    3.0915: real time    3.0967
       DOS:  cpu time    0.0030: real time    0.0037
    CHARGE:  cpu time    2.4106: real time    2.4092
    MIXING:  cpu time    0.0040: real time    0.0034
    --------------------------------------------
      LOOP:  cpu time   46.2440: real time   46.3528

 eigenvalue-minimisations  : 25509
 total energy-change (2. order) : 0.6799740E-02  (-0.1179121E-02)
 number of electron     370.0000012 magnetization 
 augmentation part      111.9810985 magnetization 

 Broyden mixing:
  rms(total) = 0.76598E-01    rms(broyden)= 0.76594E-01
  rms(prec ) = 0.91587E-01
  weight for this iteration     100.00

 eigenvalues of (default mixing * dielectric matrix)
  average eigenvalue GAMMA=   0.7909
  2.2486  2.2486  1.2791  0.7538  0.7538  0.6690  0.1209  0.3393  0.2932  0.2932
  0.2458  0.2458

 Free energy of the ion-electron system (eV)
  ---------------------------------------------------
  alpha Z        PSCENC =       954.96919766
  Ewald energy   TEWEN  =     92433.63302684
  -Hartree energ DENC   =   -120537.20987621
  -exchange      EXHF   =         0.00000000
  -V(xc)+E(xc)   XCENC  =       141.39450603
  PAW double counting   =     32507.00038120   -31589.03650271
  entropy T*S    EENTRO =        -2.07178772
  eigenvalues    EBANDS =      -710.77826662
  atomic energy  EATOM  =     26567.24197818
  Solvation  Ediel_sol  =         0.00000000
  ---------------------------------------------------
  free energy    TOTEN  =      -234.85734335 eV

  energy without entropy =     -232.78555563  energy(sigma->0) =     -233.82144949


[...]
    159       0.5580      1.99968
    160       0.6443      1.99924
    161       0.6869      1.99884
    162       0.7283      1.99824
    163       0.7791      1.99707
    164       0.7943      1.99659
    165       0.8435      1.99444
    166       0.8786      1.99211
    167       0.9168      1.98845
    168       0.9276      1.98714
    169       0.9937      1.97524
    170       1.0389      1.96136
    171       1.0801      1.94226
    172       1.1062      1.92570
    173       1.1562      1.88034
    174       1.1869      1.84077
    175       1.2033      1.81495
    176       1.2502      1.71993
    177       1.2750      1.65445
    178       1.3162      1.52066
    179       1.3355      1.44695
    180       1.3595      1.34599
    181       1.3873      1.21821
    182       1.3983      1.16532
    183       1.4173      1.07184
    184       1.4313      1.00191
    185       1.5055      0.64671
    186       1.5605      0.43221
    187       1.5829      0.36106
    188       1.6365      0.22851
    189       1.6542      0.19494
    190       1.6816      0.15181
    191       1.7038      0.12341
    192       1.7333      0.09336
    193       1.7559      0.07520
    194       1.7728      0.06391
    195       2.0141      0.00589
    196       2.3674      0.00017
    197       2.5894      0.00002
    198       2.8384      0.00000
    199       2.8835      0.00000
    200       2.9054      0.00000
    201       2.9606      0.00000
    202       3.1043      0.00000
    203       3.2383      0.00000
    204       3.4308      0.00000
    205       3.5436      0.00000
    206       3.7205      0.00000
    207       3.8014      0.00000
    208       3.9098      0.00000
    209       4.1020      0.00000
    210       4.1848      0.00000
    211       4.3090      0.00000
    212       4.3937      0.00000
    213       4.4694      0.00000
    214       4.5617      0.00000
    215       4.6320      0.00000
    216       4.8042      0.00000
    217       5.0022      0.00000
    218       5.0740      0.00000
    219       5.2824      0.00000
    220       5.6608      0.00000
    221       5.9719      0.00000
    222       6.0801      0.00000
    223       6.1878      0.00000
    224       6.3322      0.00000
    225       6.7667      0.00000


--------------------------------------------------------------------------------------------------------


 soft charge-density along one line, spin component           1
         0         1         2         3         4         5         6         7         8         9
 total charge-density along one line
 
 pseudopotential strength for first ion, spin component:           1
 -6.031   0.000  -0.000  -0.013  -0.000  -6.147   0.000  -0.000
  0.000  -5.924  -0.002   0.000  -0.009   0.000  -6.043  -0.002
 -0.000  -0.002  -5.919   0.000  -0.001  -0.000  -0.002  -6.038
 -0.013   0.000   0.000  -5.925   0.000  -0.012   0.000   0.000
 -0.000  -0.009  -0.001   0.000  -6.030  -0.000  -0.009  -0.001
 -6.147   0.000  -0.000  -0.012  -0.000  -6.246   0.000  -0.000
  0.000  -6.043  -0.002   0.000  -0.009   0.000  -6.145  -0.002
 -0.000  -0.002  -6.038   0.000  -0.001  -0.000  -0.002  -6.140
 -0.012   0.000   0.000  -6.043   0.000  -0.012   0.000   0.000
 -0.000  -0.009  -0.001   0.000  -6.146  -0.000  -0.009  -0.001
 -0.000   0.001  -0.033  -0.000   0.000  -0.000   0.001  -0.032
 -0.000   0.002  -0.049  -0.000   0.000  -0.000   0.002  -0.048
 -0.000  -0.003   0.000   0.000   0.001  -0.000  -0.003   0.000
  0.000  -0.001  -0.008   0.000  -0.000   0.000  -0.001  -0.007
 -0.000   0.000   0.000  -0.003  -0.000  -0.000   0.000   0.000
 -0.000  -0.002   0.000   0.000   0.001  -0.000  -0.002   0.000
  0.000  -0.001  -0.008   0.000  -0.000   0.000  -0.001  -0.007
 -0.000   0.000   0.000  -0.002  -0.000  -0.000   0.000   0.000
 total augmentation occupancy for first ion, spin component:           1
  3.137   0.000   0.000  -0.202  -0.000  -2.014  -0.000  -0.000   0.030   0.000  -0.000   0.000  -0.000  -0.000  -0.049   0.000
  0.000   3.908  -0.028   0.001  -0.193  -0.000  -2.090   0.016  -0.000   0.032  -0.026   0.003  -0.256   0.003  -0.000   0.013
  0.000  -0.028   4.171   0.002  -0.022  -0.000   0.017  -2.573  -0.001   0.014   0.778  -0.120   0.003  -0.315  -0.000   0.000
 -0.202   0.001   0.002   3.886   0.000   0.036  -0.000  -0.001  -2.078  -0.000   0.000  -0.000  -0.000  -0.000  -0.257   0.000
 -0.000  -0.193  -0.022   0.000   3.161   0.000   0.024   0.014  -0.000  -2.029  -0.006  -0.002  -0.050   0.002  -0.000   0.003
 -2.014  -0.000  -0.000   0.036   0.000   2.531   0.000   0.000   0.087  -0.000   0.000  -0.000   0.000   0.000   0.050   0.000
 -0.000  -2.090   0.017  -0.000   0.024   0.000   2.101  -0.010   0.000   0.089   0.015   0.000   0.244  -0.001   0.000  -0.017
 -0.000   0.016  -2.573  -0.001   0.014   0.000  -0.010   2.742   0.001  -0.009  -0.669   0.083  -0.001   0.369   0.000   0.000
  0.030  -0.000  -0.001  -2.078  -0.000   0.087   0.000   0.001   2.096   0.000  -0.000  -0.000   0.000   0.000   0.246  -0.000
  0.000   0.032   0.014  -0.000  -2.029  -0.000   0.089  -0.009   0.000   2.541   0.005   0.001   0.049  -0.001   0.000  -0.003
 -0.000  -0.026   0.778   0.000  -0.006   0.000   0.015  -0.669  -0.000   0.005   2.239  -0.446   0.002   0.184  -0.000  -0.000
  0.000   0.003  -0.120  -0.000  -0.002  -0.000   0.000   0.083  -0.000   0.001  -0.446   0.110   0.000  -0.065  -0.000   0.000
 -0.000  -0.256   0.003  -0.000  -0.050   0.000   0.244  -0.001   0.000   0.049   0.002   0.000   0.259  -0.000  -0.000  -0.014
 -0.000   0.003  -0.315  -0.000   0.002   0.000  -0.001   0.369   0.000  -0.001   0.184  -0.065  -0.000   0.147   0.000  -0.000
 -0.049  -0.000  -0.000  -0.257  -0.000   0.050   0.000   0.000   0.246   0.000  -0.000  -0.000  -0.000   0.000   0.260  -0.000
  0.000   0.013   0.000   0.000   0.003   0.000  -0.017   0.000  -0.000  -0.003  -0.000   0.000  -0.014  -0.000  -0.000   0.001
  0.000  -0.001   0.004   0.000   0.000   0.000  -0.000  -0.019  -0.000  -0.000  -0.018   0.005  -0.000  -0.009  -0.000   0.000
  0.003   0.000   0.000   0.013   0.000  -0.003  -0.000  -0.000  -0.017   0.000   0.000  -0.000  -0.000  -0.000  -0.014   0.000


------------------------ aborting loop because EDIFF is reached ----------------------------------------


    CHARGE:  cpu time    2.3936: real time    2.3952
    FORLOC:  cpu time    0.0170: real time    0.0169
    FORNL :  cpu time   11.2633: real time   11.3493
    STRESS:  cpu time   33.9718: real time   33.9529
    FORCOR:  cpu time    0.0710: real time    0.0711
    FORHAR:  cpu time    0.0300: real time    0.0298
    MIXING:  cpu time    0.0090: real time    0.0086
    OFIELD:  cpu time    0.0000: real time    0.0000

  FORCE on cell =-STRESS in cart. coord.  units (eV):
  Direction    XX          YY          ZZ          XY          YZ          ZX
  --------------------------------------------------------------------------------------
  Alpha Z   954.96920   954.96920   954.96920
  Ewald  112251.55321112309.54600************    -1.65316    71.16966    -0.80488
  Hartree118745.97854118784.15585************    -0.58939    29.28985    -0.08306
  E(xc)   -1628.04131 -1628.14359 -1637.65288    -0.00734     0.16337    -0.00516
  Local  ************************242249.21954     1.99879   -98.98018     0.62298
  n-local   152.04258   155.30019   137.78302    -0.09310     0.54914    -0.10513
  augment  1879.61777  1878.25600  1927.81444     0.10248     0.91377     0.12282
  Kinetic  5326.93455  5329.18030  5461.26159     0.22568    -2.96005     0.20589
  Fock        0.00000     0.00000     0.00000     0.00000     0.00000     0.00000
  -------------------------------------------------------------------------------------
  Total     -33.42863   -30.92953     0.01114    -0.01604     0.14556    -0.04654
  in kB     -39.85955   -36.87966     0.01329    -0.01913     0.17356    -0.05549
  external pressure =      -25.58 kB  Pullay stress =        0.00 kB


 VOLUME and BASIS-vectors are now :
 -----------------------------------------------------------------------------
  energy-cutoff  :      400.00
  volume of cell :     1343.68
      direct lattice vectors                 reciprocal lattice vectors
     8.421641764  0.000000000  0.000000000     0.118741693 -0.068555548  0.000000000
     4.210820882  7.293355709  0.000000000     0.000000000  0.137111097  0.000000000
     0.000000000  0.000000000 21.876241706     0.000000000  0.000000000  0.045711691

  length of vectors
     8.421641764  8.421641764 21.876241706     0.137111097  0.137111097  0.045711691


 FORCES acting on ions
    electron-ion (+dipol)            ewald-force                    non-local-force                 convergence-correction
 -----------------------------------------------------------------------------------------------
   -.630E-02 0.676E+00 0.233E+04   0.462E-02 -.593E+00 -.233E+04   0.118E-02 -.416E-01 -.107E+01   -.357E-03 0.635E-04 -.542E-03
   -.632E-02 -.862E-01 0.233E+04   -.161E-01 0.685E-01 -.233E+04   0.260E-02 0.894E-02 -.122E+01   0.325E-03 0.145E-05 -.726E-03
   0.536E-02 -.985E-01 0.233E+04   0.120E-01 0.805E-01 -.233E+04   -.317E-03 0.903E-02 -.122E+01   0.319E-04 0.267E-03 -.462E-03
   -.541E+00 0.213E-01 0.233E+04   0.533E+00 -.524E-01 -.233E+04   -.361E-02 0.150E-01 -.124E+01   -.115E-03 0.139E-03 -.684E-03
   -.994E-02 -.323E+00 0.233E+04   0.730E-02 0.324E+00 -.233E+04   0.109E-02 0.865E-03 -.122E+01   0.409E-03 -.681E-04 -.626E-03
   0.544E+00 0.146E-01 0.233E+04   -.540E+00 -.457E-01 -.233E+04   0.572E-02 0.152E-01 -.124E+01   -.295E-03 -.382E-04 -.437E-03
   -.692E+00 -.148E-01 0.233E+04   0.634E+00 -.265E-01 -.233E+04   0.333E-01 0.266E-01 -.118E+01   0.138E-04 0.633E-04 -.633E-03
   0.676E+00 -.140E-01 0.233E+04   -.623E+00 -.261E-01 -.233E+04   -.309E-01 0.263E-01 -.118E+01   0.374E-04 -.380E-03 -.657E-03
   0.849E-02 -.289E+00 0.233E+04   -.106E-01 0.276E+00 -.233E+04   0.832E-03 -.196E-02 -.125E+01   -.508E-04 -.482E-04 -.632E-03
   -.252E+01 0.946E+00 0.831E+03   0.240E+01 -.111E+01 -.831E+03   0.104E+00 0.102E+00 -.341E+00   -.285E-03 0.116E-03 0.133E-03
   -.319E-01 -.187E+01 0.830E+03   0.294E-01 0.187E+01 -.829E+03   0.605E-02 0.422E-01 -.303E+00   0.615E-03 0.861E-04 -.177E-04
   0.243E+01 0.805E+00 0.831E+03   -.231E+01 -.968E+00 -.831E+03   -.904E-01 0.105E+00 -.337E+00   -.330E-03 0.189E-03 0.170E-03
   -.495E+01 -.837E+00 0.828E+03   0.500E+01 0.946E+00 -.828E+03   0.536E-01 -.671E-01 -.207E+00   0.141E-03 0.712E-04 0.202E-04
   0.481E+01 -.811E+00 0.828E+03   -.486E+01 0.920E+00 -.828E+03   -.393E-01 -.695E-01 -.204E+00   0.226E-03 -.423E-03 -.691E-04
   -.552E-02 -.726E+00 0.834E+03   0.223E-02 0.704E+00 -.834E+03   0.808E-02 0.508E-01 -.435E+00   -.366E-03 -.121E-03 0.119E-03
   -.135E+00 0.357E+01 0.823E+03   0.134E+00 -.369E+01 -.822E+03   0.605E-02 0.473E-01 -.202E+00   -.241E-03 0.353E-04 0.938E-04
   0.164E+01 -.175E+01 0.831E+03   -.179E+01 0.170E+01 -.831E+03   0.888E-01 0.911E-01 -.336E+00   0.192E-03 -.260E-03 -.198E-05
   -.166E+01 -.176E+01 0.831E+03   0.180E+01 0.171E+01 -.831E+03   -.754E-01 0.913E-01 -.338E+00   0.486E-04 0.307E-03 0.123E-03
   0.996E-01 0.272E+01 -.673E+03   -.963E-01 -.279E+01 0.673E+03   -.815E-02 0.763E-01 0.547E+00   -.446E-03 0.545E-04 0.338E-03
   -.200E+01 0.178E+01 -.695E+03   0.219E+01 -.176E+01 0.695E+03   -.192E+00 -.294E-01 0.513E+00   0.209E-03 0.465E-04 0.591E-03
   0.192E+01 0.159E+01 -.696E+03   -.211E+01 -.157E+01 0.695E+03   0.183E+00 -.240E-01 0.511E+00   0.238E-03 -.161E-03 0.309E-03
   -.197E+01 -.214E+01 -.674E+03   0.206E+01 0.216E+01 0.673E+03   -.859E-01 -.328E-01 0.472E+00   -.146E-03 0.141E-03 0.494E-03
   0.184E-01 -.113E+02 -.694E+03   -.158E-01 0.104E+02 0.694E+03   -.331E-02 0.852E+00 -.664E+00   0.335E-04 -.132E-03 0.477E-03
   0.197E+01 -.245E+01 -.674E+03   -.206E+01 0.248E+01 0.673E+03   0.816E-01 -.247E-01 0.467E+00   0.114E-03 -.359E-03 0.360E-03
   -.581E+01 0.388E+01 -.683E+03   0.541E+01 -.362E+01 0.683E+03   0.400E+00 -.263E+00 -.466E-01   -.249E-03 0.294E-03 0.366E-03
   0.572E+01 0.399E+01 -.683E+03   -.531E+01 -.372E+01 0.684E+03   -.406E+00 -.269E+00 -.519E-01   -.148E-03 0.268E-04 0.520E-03
   0.345E+00 -.105E+01 -.693E+03   -.341E+00 0.113E+01 0.692E+03   -.827E-02 -.863E-01 0.703E+00   0.404E-03 0.837E-04 0.503E-03
   -.146E+00 -.918E+00 -.222E+04   0.143E+00 0.942E+00 0.221E+04   0.321E-02 -.281E-01 0.963E+00   -.240E-03 0.635E-04 -.248E-03
   0.846E+02 0.580E+02 -.215E+04   -.840E+02 -.573E+02 0.216E+04   -.585E+00 -.678E+00 -.258E+01   0.251E-03 0.110E-03 -.262E-04
   -.847E+02 0.575E+02 -.215E+04   0.841E+02 -.568E+02 0.216E+04   0.597E+00 -.661E+00 -.259E+01   -.346E-04 0.936E-04 -.275E-03
   0.301E+02 -.892E+01 -.219E+04   -.306E+02 0.904E+01 0.219E+04   0.534E+00 -.112E+00 0.120E+01   0.452E-04 0.493E-04 -.204E-03
   -.146E+00 -.863E+02 -.210E+04   0.149E+00 0.881E+02 0.210E+04   -.453E-02 -.176E+01 -.215E+01   0.805E-04 -.173E-03 -.106E-03
   -.298E+02 -.860E+01 -.219E+04   0.303E+02 0.873E+01 0.219E+04   -.546E+00 -.128E+00 0.120E+01   -.163E-03 -.166E-03 -.357E-03
   0.730E+01 -.112E+02 -.221E+04   -.745E+01 0.115E+02 0.221E+04   0.155E+00 -.300E+00 0.105E+01   -.105E-03 0.602E-04 -.220E-03
   -.742E+01 -.113E+02 -.221E+04   0.758E+01 0.116E+02 0.221E+04   -.173E+00 -.297E+00 0.106E+01   -.248E-04 -.141E-03 -.130E-03
   0.473E+00 0.151E+02 -.221E+04   -.460E+00 -.157E+02 0.221E+04   -.177E-01 0.625E+00 0.127E+01   0.129E-03 0.104E-03 -.268E-03
   -.146E+00 -.439E+02 -.107E+04   0.149E+00 0.445E+02 0.107E+04   -.427E-02 -.643E+00 -.440E+01   0.140E-04 -.135E-04 -.600E-04
   0.120E+00 0.757E+02 -.103E+04   -.129E+00 -.811E+02 0.103E+04   0.540E-02 0.536E+01 -.198E+01   0.546E-04 0.473E-04 -.766E-04
   -.450E+02 -.145E+02 -.263E+03   0.499E+02 0.157E+02 0.266E+03   -.490E+01 -.126E+01 -.278E+01   -.104E-04 -.615E-05 -.655E-05
   0.449E+02 -.147E+02 -.263E+03   -.498E+02 0.160E+02 0.266E+03   0.489E+01 -.128E+01 -.278E+01   0.133E-04 -.286E-05 -.394E-05
 -----------------------------------------------------------------------------------------------
   0.353E-02 0.478E+00 0.235E+02   0.426E-13 -.764E-13 0.722E-11   -.111E-01 -.510E+00 -.236E+02   0.203E-04 0.183E-04 -.285E-02
 
 
 POSITION                                       TOTAL-FORCE (eV/Angst)
 -----------------------------------------------------------------------------------
      0.00000      0.00000      7.50000        -0.000666      0.041822     -0.114261
      2.80721      0.00000      7.50000        -0.019317     -0.007928     -0.044086
      5.61443      0.00000      7.50000         0.017262     -0.007905     -0.043810
      1.40361      2.43112      7.50000        -0.011952     -0.015193     -0.081316
      4.21082      2.43112      7.50000        -0.000950      0.002028     -0.051289
      7.01803      2.43112      7.50000         0.009740     -0.015112     -0.081130
      2.80721      4.86224      7.50000        -0.024261     -0.013776     -0.041023
      5.61443      4.86224      7.50000         0.022361     -0.013308     -0.041290
      8.42164      4.86224      7.50000        -0.001175     -0.013909     -0.068610
      1.40361      0.81037      9.79208        -0.015263     -0.059065      0.030684
      4.21082      0.81037      9.79208         0.004262      0.044124      0.210605
      7.01803      0.81037      9.79208         0.024618     -0.057069      0.032092
      2.80721      3.24149      9.79208         0.102913      0.042217      0.144606
      5.61443      3.24149      9.79208        -0.094257      0.040400      0.147628
      8.42164      3.24149      9.79208         0.004614      0.029746     -0.009739
      4.21082      5.67261      9.79208         0.005395     -0.069649     -0.051358
      7.01803      5.67261      9.79208        -0.055654      0.041889      0.043008
      9.82525      5.67261      9.79208         0.064351      0.042908      0.038942
      8.42531      1.63706     12.04706        -0.005060      0.002320     -0.002698
      2.81995      1.63144     12.08524        -0.004510     -0.001067     -0.006694
      5.60788      1.63016     12.08582        -0.002137     -0.000683     -0.007913
      9.83298      4.07158     12.05137        -0.001492     -0.006198     -0.006342
      4.21455      4.04372     12.11112        -0.000523     -0.004280     -0.006196
      7.01687      4.07064     12.05146        -0.001354     -0.000502     -0.009208
     11.22105      6.51131     12.07120         0.000732     -0.002222     -0.005777
      5.62944      6.51162     12.07175        -0.000147     -0.006345     -0.008199
      8.42535      6.50497     12.07403        -0.003952     -0.000409     -0.006147
      8.42487      0.04784     14.36337         0.000578     -0.002806      0.004685
      2.75882      0.00726     14.46808         0.011337      0.001390      0.005019
      5.67039      0.00553     14.46828        -0.006375      0.004546      0.002190
      9.80803      2.48301     14.33902        -0.003769      0.003095      0.003216
      4.21549      2.63728     14.49674        -0.000920     -0.005797     -0.002242
      7.04489      2.48454     14.33762         0.002370     -0.001804      0.007186
     11.21717      4.94156     14.36694         0.001725      0.000855      0.003616
      5.63713      4.94200     14.36657        -0.007881      0.001872      0.006438
      8.42799      4.86826     14.35001        -0.003893      0.002806      0.007065
      4.21692      1.81176     16.54026        -0.001755     -0.006027      0.005822
      4.21512      0.81288     15.54125        -0.003714      0.003847      0.000057
      5.14639      2.04522     17.06772        -0.009087      0.005080     -0.002597
      3.28907      2.04947     17.06856         0.007807      0.000108     -0.000930
 -----------------------------------------------------------------------------------
    total drift:                               -0.007584     -0.031736     -0.114336


--------------------------------------------------------------------------------------------------------



  FREE ENERGIE OF THE ION-ELECTRON SYSTEM (eV)
  ---------------------------------------------------
  free  energy   TOTEN  =      -234.85397081 eV

  energy  without entropy=     -232.78282559  energy(sigma->0) =     -233.81839820
 


--------------------------------------------------------------------------------------------------------


    POTLOK:  cpu time    0.2100: real time    0.2100


--------------------------------------------------------------------------------------------------------


 stress matrix after NEB project (eV)
    -33.42863     -0.01604     -0.04654
     -0.01604    -30.92953      0.14556
     -0.04654      0.14556      0.01114
  FORCES: max atom, RMS     0.012476    0.006038
  FORCE total and by dimension    0.038191    0.011337
  Stress total and by dimension   45.542908   33.428634
     LOOP+:  cpu time 1881.4090: real time 1900.4869
    4ORBIT:  cpu time    0.0000: real time    0.0000

 total amount of memory used by VASP on root node   291971. kBytes
========================================================================

   base      :      30000. kBytes
   nonlr-proj:       4721. kBytes
   fftplans  :       4497. kBytes
   grid      :       7849. kBytes
   one-center:        155. kBytes
   wavefun   :     244749. kBytes
 
  
  
 General timing and accounting informations for this job:
 ========================================================
  
                  Total CPU time used (sec):     1908.695
                            User time (sec):     1854.498
                          System time (sec):       54.197
                         Elapsed time (sec):     1928.054
  
                   Maximum memory used (kb):      331680.
                   Average memory used (kb):           0.
  
                          Minor page faults:     24556180
                          Major page faults:            7
                 Voluntary context switches:         3322
