  37  37   0   0
  0.3631576E+02  0.8421642E-09  0.8421642E-09  0.2187624E-08  0.5000000E-15
  1.000000000000000E-004
  CAR 
 unknown system                          
      8.19414275     -9.16000137  301      1.11646034      1.00000000
     -9.160  0.0000E+00  0.0000E+00
     -9.102  0.0000E+00  0.0000E+00
     -9.044  0.0000E+00  0.0000E+00
     -8.986  0.4944E-03  0.2860E-04
     -8.929  0.9091E-03  0.8119E-04
     -8.871  0.1099E-02  0.1447E-03
     -8.813  0.3134E-02  0.3260E-03
     -8.755  0.5035E-02  0.6173E-03
     -8.697  0.9145E-02  0.1146E-02
     -8.639  0.1544E-01  0.2039E-02
     -8.582  0.2735E-01  0.3622E-02
     -8.524  0.4925E-01  0.6471E-02
     -8.466  0.8620E-01  0.1146E-01
     -8.408  0.1478E+00  0.2000E-01
     -8.350  0.2485E+00  0.3438E-01
     -8.292  0.4017E+00  0.5762E-01
     -8.234  0.6164E+00  0.9327E-01
     -8.177  0.8787E+00  0.1441E+00
     -8.119  0.1160E+01  0.2112E+00
     -8.061  0.1418E+01  0.2932E+00
     -8.003  0.1626E+01  0.3873E+00
     -7.945  0.1768E+01  0.4896E+00
     -7.887  0.1853E+01  0.5968E+00
     -7.830  0.1912E+01  0.7074E+00
     -7.772  0.1972E+01  0.8214E+00
     -7.714  0.2047E+01  0.9398E+00
     -7.656  0.2107E+01  0.1062E+01
     -7.598  0.2128E+01  0.1185E+01
     -7.540  0.2112E+01  0.1307E+01
     -7.482  0.2102E+01  0.1429E+01
     -7.425  0.2129E+01  0.1552E+01
     -7.367  0.2212E+01  0.1680E+01
     -7.309  0.2355E+01  0.1816E+01
     -7.251  0.2549E+01  0.1964E+01
     -7.193  0.2774E+01  0.2124E+01
     -7.135  0.3028E+01  0.2299E+01
     -7.078  0.3334E+01  0.2492E+01
     -7.020  0.3690E+01  0.2706E+01
     -6.962  0.4074E+01  0.2941E+01
     -6.904  0.4431E+01  0.3198E+01
     -6.846  0.4734E+01  0.3472E+01
     -6.788  0.4952E+01  0.3758E+01
     -6.730  0.5084E+01  0.4052E+01
     -6.673  0.5184E+01  0.4352E+01
     -6.615  0.5300E+01  0.4659E+01
     -6.557  0.5416E+01  0.4972E+01
     -6.499  0.5467E+01  0.5289E+01
     -6.441  0.5435E+01  0.5603E+01
     -6.383  0.5386E+01  0.5915E+01
     -6.325  0.5400E+01  0.6227E+01
     -6.268  0.5559E+01  0.6549E+01
     -6.210  0.5909E+01  0.6891E+01
     -6.152  0.6417E+01  0.7262E+01
     -6.094  0.6985E+01  0.7666E+01
     -6.036  0.7465E+01  0.8098E+01
     -5.978  0.7750E+01  0.8547E+01
     -5.921  0.7807E+01  0.8998E+01
     -5.863  0.7764E+01  0.9448E+01
     -5.805  0.7864E+01  0.9903E+01
     -5.747  0.8354E+01  0.1039E+02
     -5.689  0.9394E+01  0.1093E+02
     -5.631  0.1098E+02  0.1156E+02
     -5.573  0.1294E+02  0.1231E+02
     -5.516  0.1507E+02  0.1319E+02
     -5.458  0.1723E+02  0.1418E+02
     -5.400  0.1936E+02  0.1530E+02
     -5.342  0.2141E+02  0.1654E+02
     -5.284  0.2333E+02  0.1789E+02
     -5.226  0.2519E+02  0.1935E+02
     -5.169  0.2699E+02  0.2091E+02
     -5.111  0.2866E+02  0.2257E+02
     -5.053  0.3006E+02  0.2431E+02
     -4.995  0.3113E+02  0.2611E+02
     -4.937  0.3200E+02  0.2796E+02
     -4.879  0.3292E+02  0.2986E+02
     -4.821  0.3420E+02  0.3184E+02
     -4.764  0.3599E+02  0.3393E+02
     -4.706  0.3831E+02  0.3614E+02
     -4.648  0.4106E+02  0.3852E+02
     -4.590  0.4402E+02  0.4106E+02
     -4.532  0.4678E+02  0.4377E+02
     -4.474  0.4886E+02  0.4660E+02
     -4.417  0.4997E+02  0.4949E+02
     -4.359  0.5019E+02  0.5239E+02
     -4.301  0.4974E+02  0.5527E+02
     -4.243  0.4888E+02  0.5810E+02
     -4.185  0.4773E+02  0.6086E+02
     -4.127  0.4623E+02  0.6354E+02
     -4.069  0.4426E+02  0.6610E+02
     -4.012  0.4189E+02  0.6852E+02
     -3.954  0.3943E+02  0.7080E+02
     -3.896  0.3725E+02  0.7296E+02
     -3.838  0.3569E+02  0.7503E+02
     -3.780  0.3508E+02  0.7706E+02
     -3.722  0.3570E+02  0.7912E+02
     -3.665  0.3757E+02  0.8130E+02
     -3.607  0.4024E+02  0.8363E+02
     -3.549  0.4292E+02  0.8611E+02
     -3.491  0.4487E+02  0.8871E+02
     -3.433  0.4585E+02  0.9136E+02
     -3.375  0.4617E+02  0.9403E+02
     -3.317  0.4643E+02  0.9672E+02
     -3.260  0.4706E+02  0.9944E+02
     -3.202  0.4795E+02  0.1022E+03
     -3.144  0.4863E+02  0.1050E+03
     -3.086  0.4861E+02  0.1078E+03
     -3.028  0.4777E+02  0.1106E+03
     -2.970  0.4639E+02  0.1133E+03
     -2.913  0.4499E+02  0.1159E+03
     -2.855  0.4423E+02  0.1185E+03
     -2.797  0.4470E+02  0.1210E+03
     -2.739  0.4651E+02  0.1237E+03
     -2.681  0.4926E+02  0.1266E+03
     -2.623  0.5249E+02  0.1296E+03
     -2.565  0.5592E+02  0.1329E+03
     -2.508  0.5937E+02  0.1363E+03
     -2.450  0.6244E+02  0.1399E+03
     -2.392  0.6472E+02  0.1437E+03
     -2.334  0.6627E+02  0.1475E+03
     -2.276  0.6767E+02  0.1514E+03
     -2.218  0.6954E+02  0.1554E+03
     -2.160  0.7200E+02  0.1596E+03
     -2.103  0.7459E+02  0.1639E+03
     -2.045  0.7672E+02  0.1684E+03
     -1.987  0.7815E+02  0.1729E+03
     -1.929  0.7903E+02  0.1774E+03
     -1.871  0.7948E+02  0.1820E+03
     -1.813  0.7955E+02  0.1866E+03
     -1.756  0.7915E+02  0.1912E+03
     -1.698  0.7787E+02  0.1957E+03
     -1.640  0.7518E+02  0.2001E+03
     -1.582  0.7092E+02  0.2042E+03
     -1.524  0.6556E+02  0.2080E+03
     -1.466  0.5993E+02  0.2115E+03
     -1.408  0.5473E+02  0.2146E+03
     -1.351  0.5032E+02  0.2175E+03
     -1.293  0.4704E+02  0.2203E+03
     -1.235  0.4531E+02  0.2229E+03
     -1.177  0.4548E+02  0.2255E+03
     -1.119  0.4767E+02  0.2283E+03
     -1.061  0.5157E+02  0.2313E+03
     -1.004  0.5627E+02  0.2345E+03
     -0.946  0.6035E+02  0.2380E+03
     -0.888  0.6241E+02  0.2416E+03
     -0.830  0.6177E+02  0.2452E+03
     -0.772  0.5893E+02  0.2486E+03
     -0.714  0.5526E+02  0.2518E+03
     -0.656  0.5209E+02  0.2548E+03
     -0.599  0.5006E+02  0.2577E+03
     -0.541  0.4915E+02  0.2606E+03
     -0.483  0.4913E+02  0.2634E+03
     -0.425  0.4986E+02  0.2663E+03
     -0.367  0.5133E+02  0.2693E+03
     -0.309  0.5347E+02  0.2724E+03
     -0.252  0.5613E+02  0.2756E+03
     -0.194  0.5899E+02  0.2790E+03
     -0.136  0.6173E+02  0.2826E+03
     -0.078  0.6406E+02  0.2863E+03
     -0.020  0.6565E+02  0.2901E+03
      0.038  0.6606E+02  0.2939E+03
      0.096  0.6504E+02  0.2977E+03
      0.153  0.6272E+02  0.3013E+03
      0.211  0.5961E+02  0.3048E+03
      0.269  0.5652E+02  0.3080E+03
      0.327  0.5429E+02  0.3112E+03
      0.385  0.5335E+02  0.3143E+03
      0.443  0.5349E+02  0.3174E+03
      0.500  0.5423E+02  0.3205E+03
      0.558  0.5519E+02  0.3237E+03
      0.616  0.5637E+02  0.3270E+03
      0.674  0.5824E+02  0.3303E+03
      0.732  0.6118E+02  0.3339E+03
      0.790  0.6504E+02  0.3376E+03
      0.848  0.6899E+02  0.3416E+03
      0.905  0.7203E+02  0.3458E+03
      0.963  0.7353E+02  0.3500E+03
      1.021  0.7333E+02  0.3543E+03
      1.079  0.7147E+02  0.3584E+03
      1.137  0.6801E+02  0.3624E+03
      1.195  0.6321E+02  0.3660E+03
      1.252  0.5765E+02  0.3694E+03
      1.310  0.5195E+02  0.3724E+03
      1.368  0.4623E+02  0.3750E+03
      1.426  0.4029E+02  0.3774E+03
      1.484  0.3422E+02  0.3793E+03
      1.542  0.2862E+02  0.3810E+03
      1.600  0.2405E+02  0.3824E+03
      1.657  0.2067E+02  0.3836E+03
      1.715  0.1823E+02  0.3847E+03
      1.773  0.1636E+02  0.3856E+03
      1.831  0.1485E+02  0.3865E+03
      1.889  0.1361E+02  0.3872E+03
      1.947  0.1263E+02  0.3880E+03
      2.004  0.1202E+02  0.3887E+03
      2.062  0.1179E+02  0.3894E+03
      2.120  0.1180E+02  0.3900E+03
      2.178  0.1176E+02  0.3907E+03
      2.236  0.1151E+02  0.3914E+03
      2.294  0.1109E+02  0.3920E+03
      2.352  0.1068E+02  0.3927E+03
      2.409  0.1041E+02  0.3933E+03
      2.467  0.1034E+02  0.3939E+03
      2.525  0.1050E+02  0.3945E+03
      2.583  0.1087E+02  0.3951E+03
      2.641  0.1134E+02  0.3958E+03
      2.699  0.1180E+02  0.3964E+03
      2.757  0.1220E+02  0.3971E+03
      2.814  0.1247E+02  0.3979E+03
      2.872  0.1255E+02  0.3986E+03
      2.930  0.1236E+02  0.3993E+03
      2.988  0.1189E+02  0.4000E+03
      3.046  0.1127E+02  0.4006E+03
      3.104  0.1072E+02  0.4013E+03
      3.161  0.1040E+02  0.4019E+03
      3.219  0.1036E+02  0.4025E+03
      3.277  0.1052E+02  0.4031E+03
      3.335  0.1082E+02  0.4037E+03
      3.393  0.1122E+02  0.4043E+03
      3.451  0.1162E+02  0.4050E+03
      3.509  0.1188E+02  0.4057E+03
      3.566  0.1188E+02  0.4064E+03
      3.624  0.1167E+02  0.4071E+03
      3.682  0.1138E+02  0.4077E+03
      3.740  0.1116E+02  0.4084E+03
      3.798  0.1110E+02  0.4090E+03
      3.856  0.1125E+02  0.4097E+03
      3.913  0.1159E+02  0.4103E+03
      3.971  0.1193E+02  0.4110E+03
      4.029  0.1204E+02  0.4117E+03
      4.087  0.1181E+02  0.4124E+03
      4.145  0.1136E+02  0.4131E+03
      4.203  0.1093E+02  0.4137E+03
      4.261  0.1072E+02  0.4143E+03
      4.318  0.1075E+02  0.4149E+03
      4.376  0.1091E+02  0.4156E+03
      4.434  0.1107E+02  0.4162E+03
      4.492  0.1110E+02  0.4169E+03
      4.550  0.1097E+02  0.4175E+03
      4.608  0.1068E+02  0.4181E+03
      4.665  0.1027E+02  0.4187E+03
      4.723  0.9806E+01  0.4193E+03
      4.781  0.9415E+01  0.4198E+03
      4.839  0.9285E+01  0.4204E+03
      4.897  0.9515E+01  0.4209E+03
      4.955  0.1000E+02  0.4215E+03
      5.013  0.1052E+02  0.4221E+03
      5.070  0.1090E+02  0.4227E+03
      5.128  0.1118E+02  0.4234E+03
      5.186  0.1149E+02  0.4240E+03
      5.244  0.1183E+02  0.4247E+03
      5.302  0.1202E+02  0.4254E+03
      5.360  0.1191E+02  0.4261E+03
      5.417  0.1141E+02  0.4268E+03
      5.475  0.1060E+02  0.4274E+03
      5.533  0.9669E+01  0.4279E+03
      5.591  0.8817E+01  0.4285E+03
      5.649  0.8210E+01  0.4289E+03
      5.707  0.7896E+01  0.4294E+03
      5.765  0.7845E+01  0.4298E+03
      5.822  0.7990E+01  0.4303E+03
      5.880  0.8216E+01  0.4308E+03
      5.938  0.8396E+01  0.4313E+03
      5.996  0.8422E+01  0.4317E+03
      6.054  0.8302E+01  0.4322E+03
      6.112  0.8120E+01  0.4327E+03
      6.169  0.7930E+01  0.4332E+03
      6.227  0.7713E+01  0.4336E+03
      6.285  0.7435E+01  0.4340E+03
      6.343  0.7148E+01  0.4345E+03
      6.401  0.6950E+01  0.4349E+03
      6.459  0.6884E+01  0.4353E+03
      6.517  0.6909E+01  0.4357E+03
      6.574  0.6949E+01  0.4361E+03
      6.632  0.6966E+01  0.4365E+03
      6.690  0.6947E+01  0.4369E+03
      6.748  0.6898E+01  0.4373E+03
      6.806  0.6822E+01  0.4377E+03
      6.864  0.6684E+01  0.4380E+03
      6.922  0.6401E+01  0.4384E+03
      6.979  0.5920E+01  0.4388E+03
      7.037  0.5266E+01  0.4391E+03
      7.095  0.4502E+01  0.4393E+03
      7.153  0.3669E+01  0.4395E+03
      7.211  0.2807E+01  0.4397E+03
      7.269  0.1994E+01  0.4398E+03
      7.326  0.1320E+01  0.4399E+03
      7.384  0.8233E+00  0.4399E+03
      7.442  0.4930E+00  0.4400E+03
      7.500  0.2860E+00  0.4400E+03
      7.558  0.1631E+00  0.4400E+03
      7.616  0.9151E-01  0.4400E+03
      7.674  0.5029E-01  0.4400E+03
      7.731  0.2607E-01  0.4400E+03
      7.789  0.1342E-01  0.4400E+03
      7.847  0.6796E-02  0.4400E+03
      7.905  0.3062E-02  0.4400E+03
      7.963  0.2300E-03  0.4400E+03
      8.021  0.0000E+00  0.4400E+03
      8.078  0.0000E+00  0.4400E+03
      8.136  0.0000E+00  0.4400E+03
      8.194  0.0000E+00  0.4400E+03
