       N       E                     dE             d eps       ncg     rms          rms(c)
DAV:   1     0.215998369077E+04    0.21600E+04   -0.14209E+05 23810   0.116E+03
DAV:   2    -0.717564474058E+02   -0.22317E+04   -0.20575E+04 27870   0.266E+02
DAV:   3    -0.221129003147E+03   -0.14937E+03   -0.13412E+03 28250   0.621E+01
DAV:   4    -0.227006385971E+03   -0.58774E+01   -0.57014E+01 30650   0.118E+01    0.618E+01
RMM:   5    -0.218278342604E+03    0.87280E+01   -0.39439E+01 24947   0.134E+01    0.427E+01
RMM:   6    -0.261099100948E+03   -0.42821E+02   -0.71367E+01 24899   0.134E+01    0.570E+01
RMM:   7    -0.215213989292E+03    0.45885E+02   -0.23053E+01 24405   0.822E+00    0.137E+01
RMM:   8    -0.218669899495E+03   -0.34559E+01   -0.13146E+01 25102   0.572E+00    0.234E+01
RMM:   9    -0.217345800043E+03    0.13241E+01   -0.21517E+00 25816   0.222E+00    0.208E+01
RMM:  10    -0.213985753735E+03    0.33600E+01   -0.11609E+00 24967   0.175E+00    0.961E+00
RMM:  11    -0.213351300125E+03    0.63445E+00   -0.60829E-01 24883   0.127E+00    0.357E+00
RMM:  12    -0.213276409405E+03    0.74891E-01   -0.15101E-01 25902   0.606E-01    0.177E+00
RMM:  13    -0.213268802896E+03    0.76065E-02   -0.20833E-02 25995   0.231E-01    0.143E+00
RMM:  14    -0.213260489925E+03    0.83130E-02   -0.14708E-02 24676   0.206E-01    0.822E-01
RMM:  15    -0.213257381442E+03    0.31085E-02   -0.11286E-02 24655   0.179E-01    0.459E-01
RMM:  16    -0.213255284718E+03    0.20967E-02   -0.34517E-03 25082   0.100E-01    0.224E-01
RMM:  17    -0.213255096485E+03    0.18823E-03   -0.48296E-04 25665   0.359E-02    0.176E-01
RMM:  18    -0.213254876365E+03    0.22012E-03   -0.20339E-04 25061   0.237E-02    0.961E-02
RMM:  19    -0.213254857731E+03    0.18634E-04   -0.80634E-05 25169   0.151E-02    0.739E-02
RMM:  20    -0.213254853186E+03    0.45442E-05   -0.67163E-05 24803   0.118E-02    0.253E-02
RMM:  21    -0.213254883163E+03   -0.29977E-04   -0.19724E-05 25410   0.640E-03    0.158E-02
RMM:  22    -0.213254952425E+03   -0.69262E-04   -0.17230E-05 24364   0.583E-03    0.179E-02
RMM:  23    -0.213255003742E+03   -0.51317E-04   -0.83299E-06 20298   0.403E-03    0.177E-02
RMM:  24    -0.213255070455E+03   -0.66713E-04   -0.10174E-05 19889   0.403E-03    0.150E-02
RMM:  25    -0.213255098673E+03   -0.28218E-04   -0.22435E-06 16109   0.206E-03    0.853E-03
RMM:  26    -0.213255140138E+03   -0.41465E-04   -0.31832E-06 16405   0.234E-03    0.745E-03
RMM:  27    -0.213255167283E+03   -0.27145E-04   -0.18679E-06 15487   0.166E-03    0.673E-03
RMM:  28    -0.213255185260E+03   -0.17977E-04   -0.92007E-07 14883   0.119E-03    0.404E-03
RMM:  29    -0.213255217387E+03   -0.32127E-04   -0.80387E-07 14528   0.124E-03    0.249E-03
RMM:  30    -0.213255231468E+03   -0.14081E-04   -0.31031E-07 11711   0.767E-04    0.226E-03
RMM:  31    -0.213255244410E+03   -0.12942E-04   -0.25393E-07 12388   0.769E-04    0.119E-03
RMM:  32    -0.213255249440E+03   -0.50296E-05   -0.10150E-07  7412   0.536E-04    0.641E-04
RMM:  33    -0.213255254144E+03   -0.47047E-05   -0.76549E-08  8446   0.566E-04    0.736E-04
RMM:  34    -0.213255258439E+03   -0.42947E-05   -0.10784E-07  8783   0.606E-04    0.722E-04
RMM:  35    -0.213255259724E+03   -0.12850E-05   -0.40763E-08  5490   0.433E-04    0.328E-04
RMM:  36    -0.213255260049E+03   -0.32541E-06   -0.12477E-08  3029   0.358E-04
   1 F= -.21325526E+03 E0= -.21217857E+03  d E =-.215337E+01
