       N       E                     dE             d eps       ncg     rms          rms(c)
DAV:   1     0.136870205406E+01    0.13687E+01   -0.37360E+02    24   0.872E+01
DAV:   2    -0.733920249882E+01   -0.87079E+01   -0.87079E+01    24   0.257E+01
DAV:   3    -0.743585064364E+01   -0.96648E-01   -0.96648E-01    24   0.457E+00
DAV:   4    -0.743589952248E+01   -0.48879E-04   -0.48879E-04    24   0.112E-01    0.445E+00
RMM:   5    -0.699538379395E+01    0.44052E+00   -0.17479E-01    19   0.127E+00    0.245E+00
RMM:   6    -0.675451780493E+01    0.24087E+00   -0.46187E-01    23   0.206E+00    0.296E-01
RMM:   7    -0.675838655153E+01   -0.38687E-02   -0.47166E-03    22   0.218E-01    0.232E-01
RMM:   8    -0.675549822899E+01    0.28883E-02   -0.36534E-03    28   0.177E-01    0.376E-02
RMM:   9    -0.675684994791E+01   -0.13517E-02   -0.13572E-03    16   0.984E-02    0.273E-02
RMM:  10    -0.675733085762E+01   -0.48091E-03   -0.16294E-05    26   0.139E-02    0.130E-02
RMM:  11    -0.675916423184E+01   -0.18334E-02   -0.41174E-04    18   0.580E-02    0.974E-03
RMM:  12    -0.675937769629E+01   -0.21346E-03   -0.25903E-05    20   0.130E-02    0.820E-03
RMM:  13    -0.675954729071E+01   -0.16959E-03   -0.17582E-05    20   0.118E-02    0.332E-03
RMM:  14    -0.675960034181E+01   -0.53051E-04   -0.12693E-06    22   0.332E-03    0.661E-04
RMM:  15    -0.675962120687E+01   -0.20865E-04   -0.29489E-07    21   0.189E-03    0.516E-04
RMM:  16    -0.675963467852E+01   -0.13472E-04   -0.10131E-07    21   0.965E-04    0.594E-04
RMM:  17    -0.675963800777E+01   -0.33292E-05   -0.68326E-08    22   0.738E-04    0.325E-04
RMM:  18    -0.675964025021E+01   -0.22424E-05    0.00000E+00    14   0.344E-04    0.952E-05
RMM:  19    -0.675964038638E+01   -0.13617E-06    0.00000E+00    25   0.389E-04
   1 F= -.67596404E+01 E0= -.67596404E+01  d E =-.231280E-09
