  42  42   0   0
  0.3199246E+02  0.8421642E-09  0.8421642E-09  0.2187624E-08  0.5000000E-15
  1.000000000000000E-004
  CAR 
 unknown system                          
      8.26296161    -13.72781924  301      1.48052889      1.00000000
    -13.728  0.0000E+00  0.0000E+00
    -13.655  0.0000E+00  0.0000E+00
    -13.581  0.5343E-02  0.3916E-03
    -13.508  0.5775E-02  0.8149E-03
    -13.435  0.1201E-01  0.1695E-02
    -13.361  0.2497E-01  0.3526E-02
    -13.288  0.5182E-01  0.7324E-02
    -13.215  0.1072E+00  0.1518E-01
    -13.141  0.2205E+00  0.3135E-01
    -13.068  0.4476E+00  0.6416E-01
    -12.995  0.8854E+00  0.1291E+00
    -12.921  0.1665E+01  0.2511E+00
    -12.848  0.2852E+01  0.4601E+00
    -12.775  0.4185E+01  0.7669E+00
    -12.702  0.4931E+01  0.1128E+01
    -12.628  0.4506E+01  0.1459E+01
    -12.555  0.3256E+01  0.1697E+01
    -12.482  0.1976E+01  0.1842E+01
    -12.408  0.1074E+01  0.1921E+01
    -12.335  0.5495E+00  0.1961E+01
    -12.262  0.2723E+00  0.1981E+01
    -12.188  0.1328E+00  0.1991E+01
    -12.115  0.6428E-01  0.1996E+01
    -12.042  0.3099E-01  0.1998E+01
    -11.969  0.1491E-01  0.1999E+01
    -11.895  0.0000E+00  0.2000E+01
    -11.822  0.0000E+00  0.2000E+01
    -11.749  0.0000E+00  0.2000E+01
    -11.675  0.0000E+00  0.2000E+01
    -11.602  0.0000E+00  0.2000E+01
    -11.529  0.0000E+00  0.2000E+01
    -11.455  0.0000E+00  0.2000E+01
    -11.382  0.0000E+00  0.2000E+01
    -11.309  0.0000E+00  0.2000E+01
    -11.236  0.0000E+00  0.2000E+01
    -11.162  0.0000E+00  0.2000E+01
    -11.089  0.0000E+00  0.2000E+01
    -11.016  0.0000E+00  0.2000E+01
    -10.942  0.0000E+00  0.2000E+01
    -10.869  0.0000E+00  0.2000E+01
    -10.796  0.0000E+00  0.2000E+01
    -10.722  0.0000E+00  0.2000E+01
    -10.649  0.0000E+00  0.2000E+01
    -10.576  0.0000E+00  0.2000E+01
    -10.503  0.0000E+00  0.2000E+01
    -10.429  0.0000E+00  0.2000E+01
    -10.356  0.0000E+00  0.2000E+01
    -10.283  0.0000E+00  0.2000E+01
    -10.209  0.0000E+00  0.2000E+01
    -10.136  0.0000E+00  0.2000E+01
    -10.063  0.0000E+00  0.2000E+01
     -9.989  0.0000E+00  0.2000E+01
     -9.916  0.0000E+00  0.2000E+01
     -9.843  0.0000E+00  0.2000E+01
     -9.769  0.0000E+00  0.2000E+01
     -9.696  0.0000E+00  0.2000E+01
     -9.623  0.0000E+00  0.2000E+01
     -9.550  0.6413E-02  0.2000E+01
     -9.476  0.6932E-02  0.2001E+01
     -9.403  0.1442E-01  0.2002E+01
     -9.330  0.2996E-01  0.2004E+01
     -9.256  0.6214E-01  0.2009E+01
     -9.183  0.1284E+00  0.2018E+01
     -9.110  0.2634E+00  0.2038E+01
     -9.036  0.5322E+00  0.2077E+01
     -8.963  0.1043E+01  0.2153E+01
     -8.890  0.1924E+01  0.2294E+01
     -8.817  0.3192E+01  0.2528E+01
     -8.743  0.4459E+01  0.2855E+01
     -8.670  0.4938E+01  0.3217E+01
     -8.597  0.4240E+01  0.3528E+01
     -8.523  0.2916E+01  0.3741E+01
     -8.450  0.1713E+01  0.3867E+01
     -8.377  0.9168E+00  0.3934E+01
     -8.303  0.4702E+00  0.3969E+01
     -8.230  0.2436E+00  0.3986E+01
     -8.157  0.1436E+00  0.3997E+01
     -8.084  0.1206E+00  0.4006E+01
     -8.010  0.1597E+00  0.4018E+01
     -7.937  0.2711E+00  0.4037E+01
     -7.864  0.4690E+00  0.4073E+01
     -7.790  0.7702E+00  0.4129E+01
     -7.717  0.1121E+01  0.4211E+01
     -7.644  0.1444E+01  0.4317E+01
     -7.570  0.1683E+01  0.4441E+01
     -7.497  0.1819E+01  0.4574E+01
     -7.424  0.1895E+01  0.4713E+01
     -7.350  0.1970E+01  0.4857E+01
     -7.277  0.2058E+01  0.5008E+01
     -7.204  0.2099E+01  0.5162E+01
     -7.131  0.2077E+01  0.5314E+01
     -7.057  0.2049E+01  0.5464E+01
     -6.984  0.2076E+01  0.5617E+01
     -6.911  0.2175E+01  0.5776E+01
     -6.837  0.2315E+01  0.5946E+01
     -6.764  0.2416E+01  0.6123E+01
     -6.691  0.2471E+01  0.6304E+01
     -6.617  0.2555E+01  0.6491E+01
     -6.544  0.2759E+01  0.6694E+01
     -6.471  0.3128E+01  0.6923E+01
     -6.398  0.3642E+01  0.7190E+01
     -6.324  0.4161E+01  0.7495E+01
     -6.251  0.4519E+01  0.7827E+01
     -6.178  0.4661E+01  0.8168E+01
     -6.104  0.4716E+01  0.8514E+01
     -6.031  0.4811E+01  0.8867E+01
     -5.958  0.4954E+01  0.9230E+01
     -5.884  0.5172E+01  0.9609E+01
     -5.811  0.5589E+01  0.1002E+02
     -5.738  0.6263E+01  0.1048E+02
     -5.665  0.7145E+01  0.1100E+02
     -5.591  0.8280E+01  0.1161E+02
     -5.518  0.9803E+01  0.1233E+02
     -5.445  0.1164E+02  0.1318E+02
     -5.371  0.1335E+02  0.1416E+02
     -5.298  0.1468E+02  0.1524E+02
     -5.225  0.1603E+02  0.1641E+02
     -5.151  0.1778E+02  0.1771E+02
     -5.078  0.1981E+02  0.1917E+02
     -5.005  0.2196E+02  0.2078E+02
     -4.932  0.2426E+02  0.2256E+02
     -4.858  0.2674E+02  0.2452E+02
     -4.785  0.2921E+02  0.2666E+02
     -4.712  0.3126E+02  0.2895E+02
     -4.638  0.3260E+02  0.3134E+02
     -4.565  0.3344E+02  0.3379E+02
     -4.492  0.3444E+02  0.3632E+02
     -4.418  0.3610E+02  0.3896E+02
     -4.345  0.3861E+02  0.4179E+02
     -4.272  0.4192E+02  0.4487E+02
     -4.198  0.4561E+02  0.4821E+02
     -4.125  0.4890E+02  0.5180E+02
     -4.052  0.5098E+02  0.5553E+02
     -3.979  0.5165E+02  0.5932E+02
     -3.905  0.5132E+02  0.6308E+02
     -3.832  0.5043E+02  0.6678E+02
     -3.759  0.4895E+02  0.7037E+02
     -3.685  0.4650E+02  0.7378E+02
     -3.612  0.4328E+02  0.7696E+02
     -3.539  0.4013E+02  0.7990E+02
     -3.465  0.3802E+02  0.8269E+02
     -3.392  0.3767E+02  0.8545E+02
     -3.319  0.3934E+02  0.8834E+02
     -3.246  0.4242E+02  0.9145E+02
     -3.172  0.4567E+02  0.9480E+02
     -3.099  0.4803E+02  0.9832E+02
     -3.026  0.4933E+02  0.1019E+03
     -2.952  0.5009E+02  0.1056E+03
     -2.879  0.5072E+02  0.1093E+03
     -2.806  0.5094E+02  0.1131E+03
     -2.732  0.5015E+02  0.1167E+03
     -2.659  0.4822E+02  0.1203E+03
     -2.586  0.4593E+02  0.1236E+03
     -2.513  0.4452E+02  0.1269E+03
     -2.439  0.4509E+02  0.1302E+03
     -2.366  0.4799E+02  0.1337E+03
     -2.293  0.5241E+02  0.1376E+03
     -2.219  0.5711E+02  0.1418E+03
     -2.146  0.6135E+02  0.1463E+03
     -2.073  0.6469E+02  0.1510E+03
     -1.999  0.6681E+02  0.1559E+03
     -1.926  0.6816E+02  0.1609E+03
     -1.853  0.6978E+02  0.1660E+03
     -1.779  0.7224E+02  0.1713E+03
     -1.706  0.7489E+02  0.1768E+03
     -1.633  0.7683E+02  0.1824E+03
     -1.560  0.7796E+02  0.1882E+03
     -1.486  0.7853E+02  0.1939E+03
     -1.413  0.7839E+02  0.1997E+03
     -1.340  0.7706E+02  0.2053E+03
     -1.266  0.7399E+02  0.2108E+03
     -1.193  0.6903E+02  0.2158E+03
     -1.120  0.6295E+02  0.2204E+03
     -1.046  0.5702E+02  0.2246E+03
     -0.973  0.5233E+02  0.2284E+03
     -0.900  0.4954E+02  0.2321E+03
     -0.827  0.4898E+02  0.2357E+03
     -0.753  0.5059E+02  0.2394E+03
     -0.680  0.5399E+02  0.2433E+03
     -0.607  0.5798E+02  0.2476E+03
     -0.533  0.6059E+02  0.2520E+03
     -0.460  0.6038E+02  0.2565E+03
     -0.387  0.5785E+02  0.2607E+03
     -0.313  0.5476E+02  0.2647E+03
     -0.240  0.5259E+02  0.2686E+03
     -0.167  0.5187E+02  0.2724E+03
     -0.094  0.5240E+02  0.2762E+03
     -0.020  0.5372E+02  0.2802E+03
      0.053  0.5551E+02  0.2842E+03
      0.126  0.5773E+02  0.2885E+03
      0.200  0.6032E+02  0.2929E+03
      0.273  0.6282E+02  0.2975E+03
      0.346  0.6448E+02  0.3022E+03
      0.420  0.6447E+02  0.3070E+03
      0.493  0.6261E+02  0.3116E+03
      0.566  0.5949E+02  0.3159E+03
      0.639  0.5622E+02  0.3200E+03
      0.713  0.5401E+02  0.3240E+03
      0.786  0.5350E+02  0.3279E+03
      0.859  0.5430E+02  0.3319E+03
      0.933  0.5553E+02  0.3360E+03
      1.006  0.5688E+02  0.3402E+03
      1.079  0.5907E+02  0.3445E+03
      1.153  0.6268E+02  0.3491E+03
      1.226  0.6709E+02  0.3540E+03
      1.299  0.7069E+02  0.3592E+03
      1.373  0.7205E+02  0.3645E+03
      1.446  0.7055E+02  0.3696E+03
      1.519  0.6631E+02  0.3745E+03
      1.592  0.6010E+02  0.3789E+03
      1.666  0.5306E+02  0.3828E+03
      1.739  0.4584E+02  0.3862E+03
      1.812  0.3838E+02  0.3890E+03
      1.886  0.3107E+02  0.3913E+03
      1.959  0.2493E+02  0.3931E+03
      2.032  0.2049E+02  0.3946E+03
      2.106  0.1755E+02  0.3959E+03
      2.179  0.1560E+02  0.3970E+03
      2.252  0.1420E+02  0.3981E+03
      2.325  0.1308E+02  0.3990E+03
      2.399  0.1224E+02  0.3999E+03
      2.472  0.1171E+02  0.4008E+03
      2.545  0.1136E+02  0.4016E+03
      2.619  0.1106E+02  0.4024E+03
      2.692  0.1086E+02  0.4032E+03
      2.765  0.1090E+02  0.4040E+03
      2.839  0.1117E+02  0.4049E+03
      2.912  0.1149E+02  0.4057E+03
      2.985  0.1169E+02  0.4066E+03
      3.058  0.1179E+02  0.4074E+03
      3.132  0.1197E+02  0.4083E+03
      3.205  0.1224E+02  0.4092E+03
      3.278  0.1239E+02  0.4101E+03
      3.352  0.1225E+02  0.4110E+03
      3.425  0.1189E+02  0.4119E+03
      3.498  0.1150E+02  0.4127E+03
      3.572  0.1127E+02  0.4136E+03
      3.645  0.1132E+02  0.4144E+03
      3.718  0.1172E+02  0.4152E+03
      3.792  0.1237E+02  0.4162E+03
      3.865  0.1289E+02  0.4171E+03
      3.938  0.1278E+02  0.4180E+03
      4.011  0.1202E+02  0.4189E+03
      4.085  0.1123E+02  0.4197E+03
      4.158  0.1095E+02  0.4205E+03
      4.231  0.1125E+02  0.4214E+03
      4.305  0.1182E+02  0.4222E+03
      4.378  0.1220E+02  0.4231E+03
      4.451  0.1213E+02  0.4240E+03
      4.525  0.1179E+02  0.4249E+03
      4.598  0.1162E+02  0.4257E+03
      4.671  0.1185E+02  0.4266E+03
      4.744  0.1223E+02  0.4275E+03
      4.818  0.1237E+02  0.4284E+03
      4.891  0.1206E+02  0.4293E+03
      4.964  0.1141E+02  0.4301E+03
      5.038  0.1063E+02  0.4309E+03
      5.111  0.9959E+01  0.4316E+03
      5.184  0.9526E+01  0.4323E+03
      5.258  0.9376E+01  0.4330E+03
      5.331  0.9535E+01  0.4337E+03
      5.404  0.1003E+02  0.4345E+03
      5.477  0.1077E+02  0.4352E+03
      5.551  0.1159E+02  0.4361E+03
      5.624  0.1231E+02  0.4370E+03
      5.697  0.1273E+02  0.4379E+03
      5.771  0.1269E+02  0.4389E+03
      5.844  0.1211E+02  0.4398E+03
      5.917  0.1115E+02  0.4406E+03
      5.991  0.1013E+02  0.4413E+03
      6.064  0.9336E+01  0.4420E+03
      6.137  0.8871E+01  0.4427E+03
      6.210  0.8787E+01  0.4433E+03
      6.284  0.9045E+01  0.4440E+03
      6.357  0.9420E+01  0.4446E+03
      6.430  0.9595E+01  0.4454E+03
      6.504  0.9413E+01  0.4460E+03
      6.577  0.8987E+01  0.4467E+03
      6.650  0.8510E+01  0.4473E+03
      6.724  0.8039E+01  0.4479E+03
      6.797  0.7415E+01  0.4485E+03
      6.870  0.6440E+01  0.4489E+03
      6.944  0.5118E+01  0.4493E+03
      7.017  0.3678E+01  0.4496E+03
      7.090  0.2400E+01  0.4498E+03
      7.163  0.1448E+01  0.4499E+03
      7.237  0.8369E+00  0.4499E+03
      7.310  0.4769E+00  0.4500E+03
      7.383  0.2680E+00  0.4500E+03
      7.457  0.1444E+00  0.4500E+03
      7.530  0.7320E-01  0.4500E+03
      7.603  0.3427E-01  0.4500E+03
      7.677  0.1513E-01  0.4500E+03
      7.750  0.5952E-02  0.4500E+03
      7.823  0.2423E-02  0.4500E+03
      7.896  0.9637E-03  0.4500E+03
      7.970  0.4643E-03  0.4500E+03
      8.043  0.2234E-03  0.4500E+03
      8.116  0.0000E+00  0.4500E+03
      8.190  0.0000E+00  0.4500E+03
      8.263  0.0000E+00  0.4500E+03
