 vasp.5.4.1 24Jun15 (build Oct 10 2016 12:42:00) complex                        
  
 executed on           IFC91_ompi date 2018.06.30  21:05:19
 running on   20 total cores
 distrk:  each k-point on   20 cores,    1 groups
 distr:  one band on NCORES_PER_BAND=   4 cores,    5 groups


--------------------------------------------------------------------------------------------------------


 INCAR:
 POTCAR:    PAW_PBE Pt 04Feb2005                  
 POTCAR:    PAW_PBE C 08Apr2002                   
 POTCAR:    PAW_PBE H 15Jun2001                   
 POTCAR:    PAW_PBE Pt 04Feb2005                  
   VRHFIN =Pt: s1d9                                                             
   LEXCH  = PE                                                                  
   EATOM  =   729.1176 eV,   53.5886 Ry                                         
                                                                                
   TITEL  = PAW_PBE Pt 04Feb2005                                                
   LULTRA =        F    use ultrasoft PP ?                                      
   IUNSCR =        1    unscreen: 0-lin 1-nonlin 2-no                           
   RPACOR =    2.330    partial core radius                                     
   POMASS =  195.080; ZVAL   =   10.000    mass and valenz                      
   RCORE  =    2.600    outmost cutoff radius                                   
   RWIGS  =    2.750; RWIGS  =    1.455    wigner-seitz radius (au A)           
   ENMAX  =  230.283; ENMIN  =  172.712 eV                                      
   ICORE  =        3    local potential                                         
   LCOR   =        T    correct aug charges                                     
   LPAW   =        T    paw PP                                                  
   EAUG   =  358.966                                                            
   DEXC   =    0.000                                                            
   RMAX   =    2.658    core radius for proj-oper                               
   RAUG   =    1.300    factor for augmentation sphere                          
   RDEP   =    2.761    radius for radial grids                                 
   RDEPT  =    2.203    core radius for aug-charge                              
                                                                                
   Atomic configuration                                                         
   16 entries                                                                   
     n  l   j            E        occ.                                          
     1  0  0.50    -78401.1885   2.0000                                         
     2  0  0.50    -13770.7750   2.0000                                         
     2  1  1.50    -11931.0468   6.0000                                         
     3  0  0.50     -3234.7234   2.0000                                         
     3  1  1.50     -2699.2216   6.0000                                         
     3  2  2.50     -2119.5714  10.0000                                         
     4  0  0.50      -695.1528   2.0000                                         
     4  1  1.50      -519.6034   6.0000                                         
     4  2  2.50      -306.6786  10.0000                                         
     4  3  3.50       -70.1041  14.0000                                         
     5  0  0.50      -101.7747   2.0000                                         
     5  1  1.50       -55.9873   6.0000                                         
     5  2  2.50        -6.1423   9.0000                                         
     6  0  0.50        -5.6573   1.0000                                         
     6  1  1.50        -6.8029   0.0000                                         
     5  3  2.50        -1.3606   0.0000                                         
   Description                                                                  
     l       E           TYP  RCUT    TYP  RCUT                                 
     2     -6.1423404     23  2.500                                             
     2     -7.5029230     23  2.500                                             
     0     -5.6573207     23  2.500                                             
     0      0.7416693     23  2.500                                             
     1     -2.7211652     23  2.600                                             
     1     20.4087390     23  2.600                                             
     3     -1.3605826     23  2.500                                             
  local pseudopotential read in
  partial core-charges read in
  partial kinetic energy density read in
  atomic valenz-charges read in
  non local Contribution for L=           2  read in
    real space projection operators read in
  non local Contribution for L=           2  read in
    real space projection operators read in
  non local Contribution for L=           0  read in
    real space projection operators read in
  non local Contribution for L=           0  read in
    real space projection operators read in
  non local Contribution for L=           1  read in
    real space projection operators read in
  non local Contribution for L=           1  read in
    real space projection operators read in
    PAW grid and wavefunctions read in
 
   number of l-projection  operators is LMAX  =           6
   number of lm-projection operators is LMMAX =          18
 
 POTCAR:    PAW_PBE C 08Apr2002                   
   VRHFIN =C: s2p2                                                              
   LEXCH  = PE                                                                  
   EATOM  =   147.1560 eV,   10.8157 Ry                                         
                                                                                
   TITEL  = PAW_PBE C 08Apr2002                                                 
   LULTRA =        F    use ultrasoft PP ?                                      
   IUNSCR =        1    unscreen: 0-lin 1-nonlin 2-no                           
   RPACOR =    1.200    partial core radius                                     
   POMASS =   12.011; ZVAL   =    4.000    mass and valenz                      
   RCORE  =    1.500    outmost cutoff radius                                   
   RWIGS  =    1.630; RWIGS  =    0.863    wigner-seitz radius (au A)           
   ENMAX  =  400.000; ENMIN  =  300.000 eV                                      
   ICORE  =        2    local potential                                         
   LCOR   =        T    correct aug charges                                     
   LPAW   =        T    paw PP                                                  
   EAUG   =  644.873                                                            
   DEXC   =    0.000                                                            
   RMAX   =    1.529    core radius for proj-oper                               
   RAUG   =    1.300    factor for augmentation sphere                          
   RDEP   =    1.501    radius for radial grids                                 
   RDEPT  =    1.300    core radius for aug-charge                              
                                                                                
   Atomic configuration                                                         
    4 entries                                                                   
     n  l   j            E        occ.                                          
     1  0  0.50      -273.3789   2.0000                                         
     2  0  0.50       -13.7508   2.0000                                         
     2  1  0.50        -5.2854   2.0000                                         
     3  2  1.50        -5.4423   0.0000                                         
   Description                                                                  
     l       E           TYP  RCUT    TYP  RCUT                                 
     0    -13.7508458     23  1.200                                             
     0     -8.2022199     23  1.200                                             
     1     -5.2854383     23  1.500                                             
     1     34.0145650     23  1.500                                             
     2     -5.4423304      7  1.500                                             
  local pseudopotential read in
  partial core-charges read in
  partial kinetic energy density read in
  atomic valenz-charges read in
  non local Contribution for L=           0  read in
    real space projection operators read in
  non local Contribution for L=           0  read in
    real space projection operators read in
  non local Contribution for L=           1  read in
    real space projection operators read in
  non local Contribution for L=           1  read in
    real space projection operators read in
    PAW grid and wavefunctions read in
 
   number of l-projection  operators is LMAX  =           4
   number of lm-projection operators is LMMAX =           8
 
 POTCAR:    PAW_PBE H 15Jun2001                   
   VRHFIN =H: ultrasoft test                                                    
   LEXCH  = PE                                                                  
   EATOM  =    12.4884 eV,    0.9179 Ry                                         
                                                                                
   TITEL  = PAW_PBE H 15Jun2001                                                 
   LULTRA =        F    use ultrasoft PP ?                                      
   IUNSCR =        0    unscreen: 0-lin 1-nonlin 2-no                           
   RPACOR =    0.000    partial core radius                                     
   POMASS =    1.000; ZVAL   =    1.000    mass and valenz                      
   RCORE  =    1.100    outmost cutoff radius                                   
   RWIGS  =    0.700; RWIGS  =    0.370    wigner-seitz radius (au A)           
   ENMAX  =  250.000; ENMIN  =  200.000 eV                                      
   RCLOC  =    0.701    cutoff for local pot                                    
   LCOR   =        T    correct aug charges                                     
   LPAW   =        T    paw PP                                                  
   EAUG   =  400.000                                                            
   RMAX   =    1.123    core radius for proj-oper                               
   RAUG   =    1.200    factor for augmentation sphere                          
   RDEP   =    1.112    radius for radial grids                                 
   RDEPT  =    0.926    core radius for aug-charge                              
                                                                                
   Atomic configuration                                                         
    2 entries                                                                   
     n  l   j            E        occ.                                          
     1  0  0.50        -6.4927   1.0000                                         
     2  1  0.50        -3.4015   0.0000                                         
   Description                                                                  
     l       E           TYP  RCUT    TYP  RCUT                                 
     0     -6.4927494     23  1.100                                             
     0      6.8029130     23  1.100                                             
     1     -4.0817478     23  1.100                                             
  local pseudopotential read in
  atomic valenz-charges read in
  non local Contribution for L=           0  read in
    real space projection operators read in
  non local Contribution for L=           0  read in
    real space projection operators read in
  non local Contribution for L=           1  read in
    real space projection operators read in
    PAW grid and wavefunctions read in
 
   number of l-projection  operators is LMAX  =           3
   number of lm-projection operators is LMMAX =           5
 
 Optimization of the real space projectors (new method)

 maximal supplied QI-value         = 14.36
 optimisation between [QCUT,QGAM] = [ 10.20, 20.39] = [ 29.12,116.47] Ry 
 Optimized for a Real-space Cutoff    1.51 Angstroem

   l    n(q)    QCUT    max X(q) W(low)/X(q) W(high)/X(q)  e(spline) 
   2      8    10.197    66.195    0.45E-03    0.45E-03    0.14E-06
   2      8    10.197    64.643    0.46E-03    0.46E-03    0.14E-06
   0      9    10.197    95.520    0.15E-03    0.11E-03    0.54E-07
   0      9    10.197    63.403    0.15E-03    0.11E-03    0.52E-07
   1      9    10.197    19.961    0.13E-03    0.17E-03    0.77E-07
   1      9    10.197    13.289    0.10E-03    0.15E-03    0.67E-07
 Optimization of the real space projectors (new method)

 maximal supplied QI-value         = 25.13
 optimisation between [QCUT,QGAM] = [ 10.05, 20.36] = [ 28.30,116.06] Ry 
 Optimized for a Real-space Cutoff    1.30 Angstroem

   l    n(q)    QCUT    max X(q) W(low)/X(q) W(high)/X(q)  e(spline) 
   0      8    10.053   115.676    0.49E-03    0.72E-03    0.18E-06
   0      8    10.053    87.132    0.49E-03    0.71E-03    0.18E-06
   1      7    10.053     4.429    0.32E-03    0.31E-03    0.18E-06
   1      7    10.053     2.733    0.23E-03    0.19E-03    0.20E-06
 Optimization of the real space projectors (new method)

 maximal supplied QI-value         = 34.20
 optimisation between [QCUT,QGAM] = [  9.92, 20.18] = [ 27.55,114.04] Ry 
 Optimized for a Real-space Cutoff    1.26 Angstroem

   l    n(q)    QCUT    max X(q) W(low)/X(q) W(high)/X(q)  e(spline) 
   0      8     9.919    19.460    0.50E-03    0.23E-03    0.29E-06
   0      8     9.919    12.209    0.48E-03    0.23E-03    0.28E-06
   1      7     9.919     4.655    0.17E-03    0.75E-03    0.30E-06
  PAW_PBE Pt 04Feb2005                  :
 energy of atom  1       EATOM= -729.1176
 kinetic energy error for atom=    0.0056 (will be added to EATOM!!)
  PAW_PBE C 08Apr2002                   :
 energy of atom  2       EATOM= -147.1560
 kinetic energy error for atom=    0.0288 (will be added to EATOM!!)
  PAW_PBE H 15Jun2001                   :
 energy of atom  3       EATOM=  -12.4884
 kinetic energy error for atom=    0.0098 (will be added to EATOM!!)
 
 
 POSCAR: Pt  C  H                                
  positions in cartesian coordinates
  No initial velocities read in
 exchange correlation table for  LEXCH =        8
   RHO(1)=    0.500       N(1)  =     2000
   RHO(2)=  100.500       N(2)  =     4000

 VTST: version 3.1, (03/28/14)

 CHAIN: initializing optimizer
 
 OPT: Using VASP Dynamics algorithm
 CHAIN: Read ICHAIN            0
 
 POSCAR: Pt  C  H                                
  positions in cartesian coordinates
  No initial velocities read in
 


--------------------------------------------------------------------------------------------------------


 ion  position               nearest neighbor table
   1  0.000  0.000  0.343-  12 2.81  16 2.81  10 2.81   6 2.81   7 2.81   8 2.81   2 2.81   3 2.81
                             4 2.81
   2  0.333  0.000  0.343-  10 2.81  11 2.81  17 2.81   3 2.81   9 2.81   1 2.81   4 2.81   5 2.81
                             8 2.81
   3  0.667  0.000  0.343-  11 2.81  18 2.81  12 2.81   2 2.81   5 2.81   9 2.81   1 2.81   6 2.81
                             7 2.81
   4  0.000  0.333  0.343-  10 2.81  13 2.81  15 2.81   7 2.81   9 2.81   2 2.81   5 2.81   6 2.81
                             1 2.81
   5  0.333  0.333  0.343-  14 2.81  13 2.81  11 2.81   8 2.81   6 2.81   3 2.81   7 2.81   2 2.81
                             4 2.81
   6  0.667  0.333  0.343-  12 2.81  14 2.81  15 2.81   5 2.81   8 2.81   9 2.81   1 2.81   3 2.81
                             4 2.81
   7  0.000  0.667  0.343-  13 2.81  18 2.81  16 2.81   4 2.81   5 2.81   9 2.81   1 2.81   3 2.81
                             8 2.81
   8  0.333  0.667  0.343-  14 2.81  16 2.81  17 2.81   5 2.81   6 2.81   9 2.81   2 2.81   7 2.81
                             1 2.81
   9  0.667  0.667  0.343-  15 2.81  17 2.81  18 2.81   8 2.81   6 2.81   4 2.81   2 2.81   3 2.81
                             7 2.81
  10  0.111  0.111  0.448-  26 2.77  19 2.78   2 2.81   4 2.81   1 2.81  11 2.81  13 2.81  15 2.81
                            17 2.81  16 2.81  12 2.81  20 2.81
  11  0.444  0.111  0.448-  27 2.80  21 2.80  20 2.80   2 2.81   3 2.81   5 2.81  10 2.81  13 2.81
                            14 2.81  12 2.81  17 2.81  18 2.81
  12  0.778  0.111  0.448-  19 2.78  25 2.80   1 2.81   6 2.81   3 2.81  15 2.81  14 2.81  16 2.81
                            18 2.81  10 2.81  11 2.81  21 2.81
  13  0.111  0.444  0.448-  22 2.79  20 2.80  23 2.80   4 2.81   5 2.81   7 2.81  10 2.81  11 2.81
                            14 2.81  15 2.81  16 2.81  18 2.81
  14  0.444  0.444  0.448-  24 2.78  21 2.80   5 2.81   6 2.81   8 2.81  11 2.81  13 2.81  12 2.81
                            16 2.81  15 2.81  17 2.81  23 2.81
  15  0.778  0.444  0.448-  19 2.78  24 2.78  22 2.78   4 2.81   6 2.81   9 2.81  12 2.81  10 2.81
                            18 2.81  13 2.81  14 2.81  17 2.81
  16  0.111  0.778  0.448-  26 2.76   8 2.81   1 2.81   7 2.81  17 2.81  14 2.81  10 2.81  12 2.81
                            18 2.81  13 2.81  23 2.83  25 2.83
  17  0.444  0.778  0.448-  24 2.77  26 2.78   9 2.81   2 2.81   8 2.81  16 2.81  10 2.81  11 2.81
                            18 2.81  14 2.81  15 2.81  27 2.81
  18  0.778  0.778  0.448-  22 2.78  25 2.80  27 2.80   7 2.81   3 2.81   9 2.81  15 2.81  16 2.81
                            17 2.81  11 2.81  12 2.81  13 2.81
  19  0.889  0.222  0.551-  15 2.78  10 2.78  12 2.78  33 2.79  26 2.80  22 2.81  25 2.81  28 2.81
                            31 2.81  21 2.82  24 2.82  20 2.82
  20  0.223  0.224  0.552-  23 2.77  29 2.78  21 2.78  13 2.80  27 2.80  31 2.80  11 2.80  22 2.81
                            10 2.81  19 2.82  26 2.83  32 2.93
  21  0.554  0.222  0.552-  20 2.78  27 2.79  23 2.79  25 2.79  33 2.79  11 2.80  14 2.80  12 2.81
                            24 2.82  19 2.82  30 2.92  32 2.94
  22  0.888  0.557  0.551-  18 2.78  15 2.78  13 2.79  25 2.80  23 2.80  31 2.80  34 2.81  27 2.81
                            19 2.81  24 2.81  20 2.81  36 2.82
  23  0.223  0.553  0.553-  20 2.77  35 2.78  21 2.79  34 2.80  22 2.80  13 2.80  24 2.81  14 2.81
                            26 2.82  16 2.83  25 2.85  32 2.93
  24  0.554  0.557  0.551-  17 2.77  14 2.78  33 2.78  15 2.78  26 2.80  22 2.81  23 2.81  36 2.81
                            21 2.82  27 2.82  19 2.82  35 2.83
  25  0.884  0.891  0.553-  27 2.77  28 2.78  21 2.79  34 2.79  22 2.80  18 2.80  12 2.80  19 2.81
                            26 2.82  16 2.83  23 2.85  30 2.93
  26  0.220  0.889  0.550-  16 2.76  10 2.77  17 2.78  29 2.78  24 2.80  19 2.80  35 2.81  25 2.82
                            23 2.82  28 2.83  27 2.83  20 2.83
  27  0.555  0.891  0.552-  25 2.77  21 2.79  36 2.79  29 2.79  11 2.80  20 2.80  18 2.80  22 2.81
                            17 2.81  24 2.82  26 2.83  30 2.93
  28  0.997  0.001  0.656-  29 2.78  25 2.78  35 2.80  33 2.81  34 2.81  19 2.81  31 2.82  30 2.82
                            26 2.83
  29  0.328  0.999  0.655-  35 2.78  28 2.78  20 2.78  26 2.78  27 2.79  36 2.81  31 2.81  30 2.84
                            32 2.84
  30  0.661  0.005  0.664-  38 2.11  32 2.75  28 2.82  36 2.83  33 2.83  34 2.84  29 2.84  21 2.92
                            27 2.93  25 2.93
  31  0.998  0.336  0.656-  33 2.78  34 2.80  20 2.80  22 2.80  36 2.81  29 2.81  19 2.81  28 2.82
                            32 2.83
  32  0.334  0.332  0.665-  37 2.12  30 2.75  35 2.82  33 2.83  31 2.83  34 2.84  29 2.84  23 2.93
                            20 2.93  21 2.94
  33  0.667  0.337  0.655-  36 2.78  31 2.78  24 2.78  21 2.79  19 2.79  28 2.81  35 2.81  32 2.83
                            30 2.83
  34  0.997  0.668  0.656-  25 2.79  31 2.80  23 2.80  36 2.80  35 2.81  28 2.81  22 2.81  30 2.84
                            32 2.84
  35  0.330  0.668  0.656-  29 2.78  23 2.78  28 2.80  34 2.81  33 2.81  26 2.81  36 2.82  32 2.82
                            24 2.83
  36  0.664  0.669  0.656-  33 2.78  27 2.79  34 2.80  31 2.81  29 2.81  24 2.81  35 2.82  22 2.82
                            30 2.83
  37  0.411  0.256  0.757-  40 1.10  39 1.10  38 1.49  32 2.12
  38  0.587  0.080  0.756-  42 1.10  41 1.10  37 1.49  30 2.11
  39  0.419  0.372  0.776-  37 1.10
  40  0.294  0.248  0.775-  37 1.10
  41  0.704  0.088  0.775-  38 1.10
  42  0.579  0.963  0.775-  38 1.10
 
  LATTYP: Found a hexagonal cell.
 ALAT       =     8.4216417639
 C/A-ratio  =     2.5976219743
  
  Lattice vectors:
  
 A1 = (   4.2108208820,  -7.2933557091,   0.0000000000)
 A2 = (  -8.4216417639,   0.0000000000,   0.0000000000)
 A3 = (   0.0000000000,   0.0000000000, -21.8762417060)


Analysis of symmetry for initial positions (statically):
=====================================================================
 Subroutine PRICEL returns:
 Original cell was already a primitive cell.
 

 Routine SETGRP: Setting up the symmetry group for a 
 hexagonal supercell.


 Subroutine GETGRP returns: Found  1 space group operations
 (whereof  1 operations were pure point group operations)
 out of a pool of 24 trial point group operations.


The static configuration has the point symmetry C_1 .


Analysis of symmetry for dynamics (positions and initial velocities):
=====================================================================
 Subroutine PRICEL returns:
 Original cell was already a primitive cell.
 

 Routine SETGRP: Setting up the symmetry group for a 
 hexagonal supercell.


 Subroutine GETGRP returns: Found  1 space group operations
 (whereof  1 operations were pure point group operations)
 out of a pool of 24 trial point group operations.


The dynamic configuration has the point symmetry C_1 .


Analysis of constrained symmetry for selective dynamics:
=====================================================================
 Subroutine PRICEL returns:
 Original cell was already a primitive cell.
 

 Routine SETGRP: Setting up the symmetry group for a 
 hexagonal supercell.


 Subroutine GETGRP returns: Found  1 space group operations
 (whereof  1 operations were pure point group operations)
 out of a pool of 24 trial point group operations.


The constrained configuration has the point symmetry C_1 .
 
 
 KPOINTS: KPOINTS created by Atomic Simulation Env

Automatic generation of k-mesh.
Space group operators:
 irot       det(A)        alpha          n_x          n_y          n_z        tau_x        tau_y        tau_z
    1     1.000000     0.000000     1.000000     0.000000     0.000000     0.000000     0.000000     0.000000
 
 Subroutine IBZKPT returns following result:
 ===========================================
 
 Found     54 irreducible k-points:
 
 Following reciprocal coordinates:
            Coordinates               Weight
  0.083333  0.083333  0.000000     16.000000
  0.000000  0.083333  0.000000     16.000000
 -0.083333  0.000000  0.000000     16.000000
  0.250000  0.083333  0.000000     16.000000
  0.166667  0.250000  0.000000     16.000000
 -0.083333  0.166667  0.000000     16.000000
  0.166667 -0.083333  0.000000     16.000000
 -0.083333 -0.250000  0.000000     16.000000
 -0.250000 -0.166667  0.000000     16.000000
  0.416667  0.083333  0.000000     16.000000
  0.333333  0.416667  0.000000     16.000000
 -0.083333  0.333333  0.000000     16.000000
  0.333333 -0.083333  0.000000     16.000000
 -0.083333 -0.416667  0.000000     16.000000
 -0.416667 -0.333333  0.000000     16.000000
 -0.416667  0.083333  0.000000     16.000000
  0.500000 -0.416667  0.000000     16.000000
 -0.083333  0.500000  0.000000     16.000000
  0.500000 -0.083333  0.000000     16.000000
 -0.083333  0.416667  0.000000     16.000000
  0.416667  0.500000  0.000000     16.000000
 -0.250000  0.083333  0.000000     16.000000
 -0.333333 -0.250000  0.000000     16.000000
 -0.083333 -0.333333  0.000000     16.000000
 -0.333333 -0.083333  0.000000     16.000000
 -0.083333  0.250000  0.000000     16.000000
  0.250000  0.333333  0.000000     16.000000
 -0.083333  0.083333  0.000000     16.000000
 -0.166667 -0.083333  0.000000     16.000000
 -0.083333 -0.166667  0.000000     16.000000
  0.250000  0.250000  0.000000     16.000000
  0.000000  0.250000  0.000000     16.000000
 -0.250000  0.000000  0.000000     16.000000
  0.416667  0.250000  0.000000     16.000000
  0.166667  0.416667  0.000000     16.000000
 -0.250000  0.166667  0.000000     16.000000
  0.166667 -0.250000  0.000000     16.000000
 -0.250000 -0.416667  0.000000     16.000000
 -0.416667 -0.166667  0.000000     16.000000
 -0.416667  0.250000  0.000000     16.000000
  0.333333 -0.416667  0.000000     16.000000
 -0.250000  0.333333  0.000000     16.000000
  0.333333 -0.250000  0.000000     16.000000
 -0.250000  0.416667  0.000000     16.000000
  0.416667 -0.333333  0.000000     16.000000
 -0.250000  0.250000  0.000000     16.000000
  0.500000 -0.250000  0.000000     16.000000
 -0.250000  0.500000  0.000000     16.000000
  0.416667  0.416667  0.000000     16.000000
  0.000000  0.416667  0.000000     16.000000
 -0.416667 -0.000000  0.000000     16.000000
 -0.416667  0.416667  0.000000     16.000000
  0.166667 -0.416667  0.000000     16.000000
 -0.416667  0.166667  0.000000     16.000000
 
 Following cartesian coordinates:
            Coordinates               Weight
  0.009895  0.005713  0.000000     16.000000
  0.000000  0.011426  0.000000     16.000000
 -0.009895  0.005713  0.000000     16.000000
  0.029685 -0.005713  0.000000     16.000000
  0.019790  0.022852  0.000000     16.000000
 -0.009895  0.028565  0.000000     16.000000
  0.019790 -0.022852  0.000000     16.000000
 -0.009895 -0.028565  0.000000     16.000000
 -0.029685 -0.005713  0.000000     16.000000
  0.049476 -0.017139  0.000000     16.000000
  0.039581  0.034278  0.000000     16.000000
 -0.009895  0.051417  0.000000     16.000000
  0.039581 -0.034278  0.000000     16.000000
 -0.009895 -0.051417  0.000000     16.000000
 -0.049476 -0.017139  0.000000     16.000000
 -0.049476  0.039991  0.000000     16.000000
  0.059371 -0.091407  0.000000     16.000000
 -0.009895  0.074269  0.000000     16.000000
  0.059371 -0.045704  0.000000     16.000000
 -0.009895  0.062843  0.000000     16.000000
  0.049476  0.039991  0.000000     16.000000
 -0.029685  0.028565  0.000000     16.000000
 -0.039581 -0.011426  0.000000     16.000000
 -0.009895 -0.039991  0.000000     16.000000
 -0.039581  0.011426  0.000000     16.000000
 -0.009895  0.039991  0.000000     16.000000
  0.029685  0.028565  0.000000     16.000000
 -0.009895  0.017139  0.000000     16.000000
 -0.019790  0.000000  0.000000     16.000000
 -0.009895 -0.017139  0.000000     16.000000
  0.029685  0.017139  0.000000     16.000000
  0.000000  0.034278  0.000000     16.000000
 -0.029685  0.017139  0.000000     16.000000
  0.049476  0.005713  0.000000     16.000000
  0.019790  0.045704  0.000000     16.000000
 -0.029685  0.039991  0.000000     16.000000
  0.019790 -0.045704  0.000000     16.000000
 -0.029685 -0.039991  0.000000     16.000000
 -0.049476  0.005713  0.000000     16.000000
 -0.049476  0.062843  0.000000     16.000000
  0.039581 -0.079981  0.000000     16.000000
 -0.029685  0.062843  0.000000     16.000000
  0.039581 -0.057130  0.000000     16.000000
 -0.029685  0.074269  0.000000     16.000000
  0.049476 -0.074269  0.000000     16.000000
 -0.029685  0.051417  0.000000     16.000000
  0.059371 -0.068556  0.000000     16.000000
 -0.029685  0.085694  0.000000     16.000000
  0.049476  0.028565  0.000000     16.000000
  0.000000  0.057130  0.000000     16.000000
 -0.049476  0.028565  0.000000     16.000000
 -0.049476  0.085694  0.000000     16.000000
  0.019790 -0.068556  0.000000     16.000000
 -0.049476  0.051417  0.000000     16.000000
 


--------------------------------------------------------------------------------------------------------




 Dimension of arrays:
   k-points           NKPTS =     54   k-points in BZ     NKDIM =     54   number of bands    NBANDS=    225
   number of dos      NEDOS =    301   number of ions     NIONS =     42
   non local maximal  LDIM  =      6   non local SUM 2l+1 LMDIM =     18
   total plane-waves  NPLWV = 190512
   max r-space proj   IRMAX =   2088   max aug-charges    IRDMAX=   8786
   dimension x,y,z NGX =    42 NGY =   42 NGZ =  108
   dimension x,y,z NGXF=    84 NGYF=   84 NGZF=  216
   support grid    NGXF=    84 NGYF=   84 NGZF=  216
   ions per type =              36   2   4
 NGX,Y,Z   is equivalent  to a cutoff of   8.29,  8.29,  8.21 a.u.
 NGXF,Y,Z  is equivalent  to a cutoff of  16.58, 16.58, 16.41 a.u.


 I would recommend the setting:
   dimension x,y,z NGX =    41 NGY =   41 NGZ =  107
 SYSTEM =  unknown system                          
 POSCAR =  Pt  C  H                                

 Startparameter for this run:
   NWRITE =      2    write-flag & timer
   PREC   = normal    normal or accurate (medium, high low for compatibility)
   ISTART =      0    job   : 0-new  1-cont  2-samecut
   ICHARG =      2    charge: 1-file 2-atom 10-const
   ISPIN  =      1    spin polarized calculation?
   LNONCOLLINEAR =      F non collinear calculations
   LSORBIT =      F    spin-orbit coupling
   INIWAV =      1    electr: 0-lowe 1-rand  2-diag
   LASPH  =      F    aspherical Exc in radial PAW
   METAGGA=      F    non-selfconsistent MetaGGA calc.

 Electronic Relaxation 1
   ENCUT  =  400.0 eV  29.40 Ry    5.42 a.u.  13.73 13.73 35.67*2*pi/ulx,y,z
   ENINI  =  400.0     initial cutoff
   ENAUG  =  644.9 eV  augmentation charge cutoff
   NELM   =     60;   NELMIN=  4; NELMDL= -4     # of ELM steps 
   EDIFF  = 0.1E-05   stopping-criterion for ELM
   LREAL  =      T    real-space projection
   NLSPLINE    = F    spline interpolate recip. space projectors
   LCOMPAT=      F    compatible to vasp.4.4
   GGA_COMPAT  = T    GGA compatible to vasp.4.4-vasp.4.6
   LMAXPAW     = -100 max onsite density
   LMAXMIX     =    2 max onsite mixed and CHGCAR
   VOSKOWN=      0    Vosko Wilk Nusair interpolation
   ROPT   =   -0.00050  -0.00050  -0.00050
 Ionic relaxation
   EDIFFG = 0.1E-04   stopping-criterion for IOM
   NSW    =      0    number of steps for IOM
   NBLOCK =      1;   KBLOCK =      1    inner block; outer block 
   IBRION =     -1    ionic relax: 0-MD 1-quasi-New 2-CG
   NFREE  =      0    steps in history (QN), initial steepest desc. (CG)
   ISIF   =      2    stress and relaxation
   IWAVPR =     10    prediction:  0-non 1-charg 2-wave 3-comb
   ISYM   =      2    0-nonsym 1-usesym 2-fastsym
   LCORR  =      T    Harris-Foulkes like correction to forces

   POTIM  = 0.5000    time-step for ionic-motion
   TEIN   =    0.0    initial temperature
   TEBEG  =    0.0;   TEEND  =   0.0 temperature during run
   SMASS  =  -3.00    Nose mass-parameter (am)
   estimated Nose-frequenzy (Omega)   =  0.10E-29 period in steps =****** mass=  -0.162E-26a.u.
   SCALEE = 1.0000    scale energy and forces
   NPACO  =    256;   APACO  = 16.0  distance and # of slots for P.C.
   PSTRESS=    0.0 pullay stress

  Mass of Ions in am
   POMASS = 195.08 12.01  1.00
  Ionic Valenz
   ZVAL   =  10.00  4.00  1.00
  Atomic Wigner-Seitz radii
   RWIGS  =  -1.00 -1.00 -1.00
  virtual crystal weights 
   VCA    =   1.00  1.00  1.00
   NELECT =     372.0000    total number of electrons
   NUPDOWN=      -1.0000    fix difference up-down

 DOS related values:
   EMIN   =  10.00;   EMAX   =-10.00  energy-range for DOS
   EFERMI =   0.00
   ISMEAR =    -1;   SIGMA  =   0.10  broadening in eV -4-tet -1-fermi 0-gaus

 Electronic relaxation 2 (details)
   IALGO  =     68    algorithm
   LDIAG  =      T    sub-space diagonalisation (order eigenvalues)
   LSUBROT=      F    optimize rotation matrix (better conditioning)
   TURBO    =      0    0=normal 1=particle mesh
   IRESTART =      0    0=no restart 2=restart with 2 vectors
   NREBOOT  =      0    no. of reboots
   NMIN     =      0    reboot dimension
   EREF     =   0.00    reference energy to select bands
   IMIX   =      4    mixing-type and parameters
     AMIX     =   0.40;   BMIX     =  1.00
     AMIX_MAG =   1.60;   BMIX_MAG =  1.00
     AMIN     =   0.10
     WC   =   100.;   INIMIX=   1;  MIXPRE=   1;  MAXMIX= -45

 Intra band minimization:
   WEIMIN = 0.0000     energy-eigenvalue tresh-hold
   EBREAK =  0.11E-08  absolut break condition
   DEPER  =   0.30     relativ break condition  

   TIME   =   0.40     timestep for ELM

  volume/ion in A,a.u.               =      31.99       215.90
  Fermi-wavevector in a.u.,A,eV,Ry     =   1.066981  2.016303 15.489544  1.138449
  Thomas-Fermi vector in A             =   2.202583
 
 Write flags
   LWAVE  =      F    write WAVECAR
   LCHARG =      F    write CHGCAR
   LVTOT  =      F    write LOCPOT, total local potential
   LVHAR  =      F    write LOCPOT, Hartree potential only
   LELF   =      F    write electronic localiz. function (ELF)
   LORBIT =      0    0 simple, 1 ext, 2 COOP (PROOUT)


 Dipole corrections
   LMONO  =      F    monopole corrections only (constant potential shift)
   LDIPOL =      F    correct potential (dipole corrections)
   IDIPOL =      0    1-x, 2-y, 3-z, 4-all directions 
   EPSILON=  1.0000000 bulk dielectric constant

 Exchange correlation treatment:
   GGA     =    PE    GGA type
   LEXCH   =     8    internal setting for exchange type
   VOSKOWN=      0    Vosko Wilk Nusair interpolation
   LHFCALC =     F    Hartree Fock is set to
   LHFONE  =     F    Hartree Fock one center treatment
   AEXX    =    0.0000 exact exchange contribution

 Linear response parameters
   LEPSILON=     F    determine dielectric tensor
   LRPA    =     F    only Hartree local field effects (RPA)
   LNABLA  =     F    use nabla operator in PAW spheres
   LVEL    =     F    velocity operator in full k-point grid
   LINTERFAST=   F  fast interpolation
   KINTER  =     0    interpolate to denser k-point grid
   CSHIFT  =0.1000    complex shift for real part using Kramers Kronig
   OMEGAMAX=  -1.0    maximum frequency
   DEG_THRESHOLD= 0.2000000E-02 threshold for treating states as degnerate
   RTIME   =    0.100 relaxation time in fs

 Orbital magnetization related:
   ORBITALMAG=     F  switch on orbital magnetization
   LCHIMAG   =     F  perturbation theory with respect to B field
   DQ        =  0.001000  dq finite difference perturbation B field



--------------------------------------------------------------------------------------------------------


 Static calculation
 charge density and potential will be updated during run
 non-spin polarized calculation
 RMM-DIIS sequential band-by-band and
  variant of blocked Davidson during initial phase
 perform sub-space diagonalisation
    before iterative eigenvector-optimisation
 modified Broyden-mixing scheme, WC =      100.0
 initial mixing is a Kerker type mixing with AMIX =  0.4000 and BMIX =      1.0000
 Hartree-type preconditioning will be used
 using additional bands           39
 real space projection scheme for non local part
 use partial core corrections
 calculate Harris-corrections to forces 
   (improved forces if not selfconsistent)
 use gradient corrections 
 use of overlap-Matrix (Vanderbilt PP)
 Fermi-smearing in eV        SIGMA  =   0.10


--------------------------------------------------------------------------------------------------------


  energy-cutoff  :      400.00
  volume of cell :     1343.68
      direct lattice vectors                 reciprocal lattice vectors
     8.421641764  0.000000000  0.000000000     0.118741693 -0.068555548  0.000000000
     4.210820882  7.293355709  0.000000000     0.000000000  0.137111097  0.000000000
     0.000000000  0.000000000 21.876241706     0.000000000  0.000000000  0.045711691

  length of vectors
     8.421641764  8.421641764 21.876241706     0.137111097  0.137111097  0.045711691


 
 k-points in units of 2pi/SCALE and weight: KPOINTS created by Atomic Simulation Env
   0.00989514  0.00571296  0.00000000       0.019
   0.00000000  0.01142592  0.00000000       0.019
  -0.00989514  0.00571296  0.00000000       0.019
   0.02968542 -0.00571296  0.00000000       0.019
   0.01979028  0.02285185  0.00000000       0.019
  -0.00989514  0.02856481  0.00000000       0.019
   0.01979028 -0.02285185  0.00000000       0.019
  -0.00989514 -0.02856481  0.00000000       0.019
  -0.02968542 -0.00571296  0.00000000       0.019
   0.04947571 -0.01713889  0.00000000       0.019
   0.03958056  0.03427777  0.00000000       0.019
  -0.00989514  0.05141666  0.00000000       0.019
   0.03958056 -0.03427777  0.00000000       0.019
  -0.00989514 -0.05141666  0.00000000       0.019
  -0.04947571 -0.01713889  0.00000000       0.019
  -0.04947571  0.03999074  0.00000000       0.019
   0.05937085 -0.09140740  0.00000000       0.019
  -0.00989514  0.07426851  0.00000000       0.019
   0.05937085 -0.04570370  0.00000000       0.019
  -0.00989514  0.06284259  0.00000000       0.019
   0.04947571  0.03999074  0.00000000       0.019
  -0.02968542  0.02856481  0.00000000       0.019
  -0.03958056 -0.01142592  0.00000000       0.019
  -0.00989514 -0.03999074  0.00000000       0.019
  -0.03958056  0.01142592  0.00000000       0.019
  -0.00989514  0.03999074  0.00000000       0.019
   0.02968542  0.02856481  0.00000000       0.019
  -0.00989514  0.01713889  0.00000000       0.019
  -0.01979028  0.00000000  0.00000000       0.019
  -0.00989514 -0.01713889  0.00000000       0.019
   0.02968542  0.01713889  0.00000000       0.019
   0.00000000  0.03427777  0.00000000       0.019
  -0.02968542  0.01713889  0.00000000       0.019
   0.04947571  0.00571296  0.00000000       0.019
   0.01979028  0.04570370  0.00000000       0.019
  -0.02968542  0.03999074  0.00000000       0.019
   0.01979028 -0.04570370  0.00000000       0.019
  -0.02968542 -0.03999074  0.00000000       0.019
  -0.04947571  0.00571296  0.00000000       0.019
  -0.04947571  0.06284259  0.00000000       0.019
   0.03958056 -0.07998147  0.00000000       0.019
  -0.02968542  0.06284259  0.00000000       0.019
   0.03958056 -0.05712962  0.00000000       0.019
  -0.02968542  0.07426851  0.00000000       0.019
   0.04947571 -0.07426851  0.00000000       0.019
  -0.02968542  0.05141666  0.00000000       0.019
   0.05937085 -0.06855555  0.00000000       0.019
  -0.02968542  0.08569444  0.00000000       0.019
   0.04947571  0.02856481  0.00000000       0.019
   0.00000000  0.05712962  0.00000000       0.019
  -0.04947571  0.02856481  0.00000000       0.019
  -0.04947571  0.08569444  0.00000000       0.019
   0.01979028 -0.06855555  0.00000000       0.019
  -0.04947571  0.05141666  0.00000000       0.019
 
 k-points in reciprocal lattice and weights: KPOINTS created by Atomic Simulation Env
   0.08333333  0.08333333  0.00000000       0.019
   0.00000000  0.08333333  0.00000000       0.019
  -0.08333333  0.00000000  0.00000000       0.019
   0.25000000  0.08333333  0.00000000       0.019
   0.16666667  0.25000000  0.00000000       0.019
  -0.08333333  0.16666667  0.00000000       0.019
   0.16666667 -0.08333333  0.00000000       0.019
  -0.08333333 -0.25000000  0.00000000       0.019
  -0.25000000 -0.16666667  0.00000000       0.019
   0.41666667  0.08333333  0.00000000       0.019
   0.33333333  0.41666667  0.00000000       0.019
  -0.08333333  0.33333333  0.00000000       0.019
   0.33333333 -0.08333333  0.00000000       0.019
  -0.08333333 -0.41666667  0.00000000       0.019
  -0.41666667 -0.33333333  0.00000000       0.019
  -0.41666667  0.08333333  0.00000000       0.019
   0.50000000 -0.41666667  0.00000000       0.019
  -0.08333333  0.50000000  0.00000000       0.019
   0.50000000 -0.08333333  0.00000000       0.019
  -0.08333333  0.41666667  0.00000000       0.019
   0.41666667  0.50000000  0.00000000       0.019
  -0.25000000  0.08333333  0.00000000       0.019
  -0.33333333 -0.25000000  0.00000000       0.019
  -0.08333333 -0.33333333  0.00000000       0.019
  -0.33333333 -0.08333333  0.00000000       0.019
  -0.08333333  0.25000000  0.00000000       0.019
   0.25000000  0.33333333  0.00000000       0.019
  -0.08333333  0.08333333  0.00000000       0.019
  -0.16666667 -0.08333333  0.00000000       0.019
  -0.08333333 -0.16666667  0.00000000       0.019
   0.25000000  0.25000000  0.00000000       0.019
   0.00000000  0.25000000  0.00000000       0.019
  -0.25000000  0.00000000  0.00000000       0.019
   0.41666667  0.25000000  0.00000000       0.019
   0.16666667  0.41666667  0.00000000       0.019
  -0.25000000  0.16666667  0.00000000       0.019
   0.16666667 -0.25000000  0.00000000       0.019
  -0.25000000 -0.41666667  0.00000000       0.019
  -0.41666667 -0.16666667  0.00000000       0.019
  -0.41666667  0.25000000  0.00000000       0.019
   0.33333333 -0.41666667  0.00000000       0.019
  -0.25000000  0.33333333  0.00000000       0.019
   0.33333333 -0.25000000  0.00000000       0.019
  -0.25000000  0.41666667  0.00000000       0.019
   0.41666667 -0.33333333  0.00000000       0.019
  -0.25000000  0.25000000  0.00000000       0.019
   0.50000000 -0.25000000  0.00000000       0.019
  -0.25000000  0.50000000  0.00000000       0.019
   0.41666667  0.41666667  0.00000000       0.019
   0.00000000  0.41666667  0.00000000       0.019
  -0.41666667 -0.00000000  0.00000000       0.019
  -0.41666667  0.41666667  0.00000000       0.019
   0.16666667 -0.41666667  0.00000000       0.019
  -0.41666667  0.16666667  0.00000000       0.019
 
 position of ions in fractional coordinates (direct lattice) 
   0.00000000  0.00000000  0.34283768
   0.33333333  0.00000000  0.34283768
   0.66666667  0.00000000  0.34283768
   0.00000000  0.33333333  0.34283768
   0.33333333  0.33333333  0.34283768
   0.66666667  0.33333333  0.34283768
   0.00000000  0.66666667  0.34283768
   0.33333333  0.66666667  0.34283768
   0.66666667  0.66666667  0.34283768
   0.11111111  0.11111111  0.44761256
   0.44444444  0.11111111  0.44761256
   0.77777778  0.11111111  0.44761256
   0.11111111  0.44444444  0.44761256
   0.44444444  0.44444444  0.44761256
   0.77777778  0.44444444  0.44761256
   0.11111111  0.77777778  0.44761256
   0.44444444  0.77777778  0.44761256
   0.77777778  0.77777778  0.44761256
   0.88880269  0.22246864  0.55074865
   0.22286731  0.22383398  0.55225837
   0.55421601  0.22242033  0.55214179
   0.88797649  0.55650505  0.55106743
   0.22267469  0.55251921  0.55284426
   0.55401487  0.55710024  0.55069641
   0.88442469  0.89087452  0.55271808
   0.22045978  0.88875937  0.55045762
   0.55546855  0.89103318  0.55223428
   0.99711981  0.00121383  0.65602023
   0.32786159  0.99896524  0.65492262
   0.66129139  0.00484446  0.66420994
   0.99755567  0.33557713  0.65601588
   0.33449545  0.33204052  0.66454342
   0.66653639  0.33714803  0.65462989
   0.99701562  0.66792043  0.65632529
   0.32992381  0.66836691  0.65608148
   0.66407476  0.66858163  0.65604814
   0.41057677  0.25630111  0.75671477
   0.58695348  0.07968935  0.75647312
   0.41944836  0.37246933  0.77552328
   0.29417945  0.24780372  0.77549050
   0.70390050  0.08785725  0.77491244
   0.57853529  0.96311503  0.77512002
 
 position of ions in cartesian coordinates  (Angst):
   0.00000000  0.00000000  7.50000000
   2.80721392  0.00000000  7.50000000
   5.61442784  0.00000000  7.50000000
   1.40360696  2.43111857  7.50000000
   4.21082088  2.43111857  7.50000000
   7.01803480  2.43111857  7.50000000
   2.80721392  4.86223714  7.50000000
   5.61442784  4.86223714  7.50000000
   8.42164176  4.86223714  7.50000000
   1.40360696  0.81037286  9.79208057
   4.21082088  0.81037286  9.79208057
   7.01803480  0.81037286  9.79208057
   2.80721392  3.24149143  9.79208057
   5.61442784  3.24149143  9.79208057
   8.42164176  3.24149143  9.79208057
   4.21082088  5.67261000  9.79208057
   7.01803480  5.67261000  9.79208057
   9.82524872  5.67261000  9.79208057
   8.42195344  1.62254290 12.04831058
   2.81943348  1.63250083 12.08133759
   5.60398087  1.62219058 12.07878723
   9.82156298  4.05878928 12.05528425
   4.20184592  4.02971914 12.09415457
   7.01156411  4.06313022 12.04716770
  11.19962090  6.49746474 12.09139430
   5.59903980  6.48203819 12.04194396
   8.42993823  6.49862194 12.08081055
   8.40249708  0.00885287 14.35125711
   6.96759657  7.28580886 14.32724553
   5.58955831  0.03533239 14.53041727
   9.81411164  2.44748337 14.35116203
   4.21516402  2.42168963 14.53771256
   7.03300067  2.45894052 14.32084163
  11.20900163  4.87138125 14.35793068
   5.59287344  4.87463760 14.35259700
   8.40787723  4.87620362 14.35186762
   4.53696856  1.86929515 16.55407512
   5.27866950  0.58120281 16.54878871
   5.10084549  2.71655134 16.96553474
   3.52093104  1.80732070 16.96481771
   6.29794901  0.64077419 16.95217191
   8.92772183  7.02434049 16.95671297
 


--------------------------------------------------------------------------------------------------------


 k-point  1 :   0.0833 0.0833 0.0000  plane waves:   24413
 k-point  2 :   0.0000 0.0833 0.0000  plane waves:   24413
 k-point  3 :  -0.0833 0.0000 0.0000  plane waves:   24413
 k-point  4 :   0.2500 0.0833 0.0000  plane waves:   24407
 k-point  5 :   0.1667 0.2500 0.0000  plane waves:   24407
 k-point  6 :  -0.0833 0.1667 0.0000  plane waves:   24407
 k-point  7 :   0.1667-0.0833 0.0000  plane waves:   24407
 k-point  8 :  -0.0833-0.2500 0.0000  plane waves:   24407
 k-point  9 :  -0.2500-0.1667 0.0000  plane waves:   24407
 k-point 10 :   0.4167 0.0833 0.0000  plane waves:   24416
 k-point 11 :   0.3333 0.4167 0.0000  plane waves:   24416
 k-point 12 :  -0.0833 0.3333 0.0000  plane waves:   24416
 k-point 13 :   0.3333-0.0833 0.0000  plane waves:   24416
 k-point 14 :  -0.0833-0.4167 0.0000  plane waves:   24416
 k-point 15 :  -0.4167-0.3333 0.0000  plane waves:   24416
 k-point 16 :  -0.4167 0.0833 0.0000  plane waves:   24418
 k-point 17 :   0.5000-0.4167 0.0000  plane waves:   24418
 k-point 18 :  -0.0833 0.5000 0.0000  plane waves:   24418
 k-point 19 :   0.5000-0.0833 0.0000  plane waves:   24418
 k-point 20 :  -0.0833 0.4167 0.0000  plane waves:   24418
 k-point 21 :   0.4167 0.5000 0.0000  plane waves:   24418
 k-point 22 :  -0.2500 0.0833 0.0000  plane waves:   24416
 k-point 23 :  -0.3333-0.2500 0.0000  plane waves:   24416
 k-point 24 :  -0.0833-0.3333 0.0000  plane waves:   24416
 k-point 25 :  -0.3333-0.0833 0.0000  plane waves:   24416
 k-point 26 :  -0.0833 0.2500 0.0000  plane waves:   24416
 k-point 27 :   0.2500 0.3333 0.0000  plane waves:   24416
 k-point 28 :  -0.0833 0.0833 0.0000  plane waves:   24411
 k-point 29 :  -0.1667-0.0833 0.0000  plane waves:   24411
 k-point 30 :  -0.0833-0.1667 0.0000  plane waves:   24411
 k-point 31 :   0.2500 0.2500 0.0000  plane waves:   24440
 k-point 32 :   0.0000 0.2500 0.0000  plane waves:   24440
 k-point 33 :  -0.2500 0.0000 0.0000  plane waves:   24440
 k-point 34 :   0.4167 0.2500 0.0000  plane waves:   24406
 k-point 35 :   0.1667 0.4167 0.0000  plane waves:   24406
 k-point 36 :  -0.2500 0.1667 0.0000  plane waves:   24406
 k-point 37 :   0.1667-0.2500 0.0000  plane waves:   24406
 k-point 38 :  -0.2500-0.4167 0.0000  plane waves:   24406
 k-point 39 :  -0.4167-0.1667 0.0000  plane waves:   24406
 k-point 40 :  -0.4167 0.2500 0.0000  plane waves:   24402
 k-point 41 :   0.3333-0.4167 0.0000  plane waves:   24402
 k-point 42 :  -0.2500 0.3333 0.0000  plane waves:   24402
 k-point 43 :   0.3333-0.2500 0.0000  plane waves:   24402
 k-point 44 :  -0.2500 0.4167 0.0000  plane waves:   24402
 k-point 45 :   0.4167-0.3333 0.0000  plane waves:   24402
 k-point 46 :  -0.2500 0.2500 0.0000  plane waves:   24390
 k-point 47 :   0.5000-0.2500 0.0000  plane waves:   24390
 k-point 48 :  -0.2500 0.5000 0.0000  plane waves:   24390
 k-point 49 :   0.4167 0.4167 0.0000  plane waves:   24430
 k-point 50 :   0.0000 0.4167 0.0000  plane waves:   24430
 k-point 51 :  -0.4167-0.0000 0.0000  plane waves:   24430
 k-point 52 :  -0.4167 0.4167 0.0000  plane waves:   24404
 k-point 53 :   0.1667-0.4167 0.0000  plane waves:   24404
 k-point 54 :  -0.4167 0.1667 0.0000  plane waves:   24404

 maximum and minimum number of plane-waves per node :      6146     6048

 maximum number of plane-waves:     24440
 maximum index in each direction: 
   IXMAX=   14   IYMAX=   14   IZMAX=   35
   IXMIN=  -14   IYMIN=  -14   IZMIN=  -35

 WARNING: aliasing errors must be expected set NGX to  58 to avoid them
 WARNING: aliasing errors must be expected set NGY to  58 to avoid them
 WARNING: aliasing errors must be expected set NGZ to 142 to avoid them
 aliasing errors are usually negligible using standard VASP settings
 and one can safely disregard these warnings

 real space projection operators:
  total allocation   :      10349.98 KBytes
  max/ min on nodes  :       2728.31       2467.17


 parallel 3D FFT for wavefunctions:
    minimum data exchange during FFTs selected (reduces bandwidth)
 parallel 3D FFT for charge:
    minimum data exchange during FFTs selected (reduces bandwidth)


 total amount of memory used by VASP on root node   292292. kBytes
========================================================================

   base      :      30000. kBytes
   nonlr-proj:       4831. kBytes
   fftplans  :       4497. kBytes
   grid      :       7849. kBytes
   one-center:        171. kBytes
   wavefun   :     244944. kBytes
 
     INWAV:  cpu time    0.0000: real time    0.0000
 Broyden mixing: mesh for mixing (old mesh)
   NGX = 27   NGY = 27   NGZ = 71
  (NGX  = 84   NGY  = 84   NGZ  =216)
  gives a total of  51759 points

 initial charge density was supplied:
 charge density of overlapping atoms calculated
 number of electron     372.0000000 magnetization 
 keeping initial charge density in first step


--------------------------------------------------------------------------------------------------------


 Maximum index for non-local projection operator          595
 Maximum index for augmentation-charges          869 (set IRDMAX)


--------------------------------------------------------------------------------------------------------


 First call to EWALD:  gamma=   0.161
 Maximum number of real-space cells 4x 4x 2
 Maximum number of reciprocal cells 2x 2x 5

 FEWALD executed in parallel
    FEWALD:  cpu time    0.0030: real time    0.0028


----------------------------------------- Iteration    1(   1)  ---------------------------------------


    POTLOK:  cpu time    0.9858: real time    0.9850
    SETDIJ:  cpu time    0.0090: real time    0.0093
     EDDAV:  cpu time   70.5853: real time   70.7164
       DOS:  cpu time    0.0020: real time    0.0026
    --------------------------------------------
      LOOP:  cpu time   71.5841: real time   71.7257

 eigenvalue-minimisations  : 24360
 total energy-change (2. order) : 0.2199053E+04  (-0.1474511E+05)
 number of electron     372.0000000 magnetization 
 augmentation part      372.0000000 magnetization 

 Free energy of the ion-electron system (eV)
  ---------------------------------------------------
  alpha Z        PSCENC =       961.48010405
  Ewald energy   TEWEN  =     91294.51541456
  -Hartree energ DENC   =   -119759.57002737
  -exchange      EXHF   =         0.00000000
  -V(xc)+E(xc)   XCENC  =       156.91314923
  PAW double counting   =     25286.02747792   -24269.00514459
  entropy T*S    EENTRO =        -0.55363276
  eigenvalues    EBANDS =      1937.04680572
  atomic energy  EATOM  =     26592.19924351
  Solvation  Ediel_sol  =         0.00000000
  ---------------------------------------------------
  free energy    TOTEN  =      2199.05339025 eV

  energy without entropy =     2199.60702302  energy(sigma->0) =     2199.33020663


--------------------------------------------------------------------------------------------------------




----------------------------------------- Iteration    1(   2)  ---------------------------------------


     EDDAV:  cpu time   83.1014: real time   83.1290
       DOS:  cpu time    0.0030: real time    0.0034
    --------------------------------------------
      LOOP:  cpu time   83.1054: real time   83.2760

 eigenvalue-minimisations  : 28310
 total energy-change (2. order) :-0.2292986E+04  (-0.2123374E+04)
 number of electron     372.0000000 magnetization 
 augmentation part      372.0000000 magnetization 

 Free energy of the ion-electron system (eV)
  ---------------------------------------------------
  alpha Z        PSCENC =       961.48010405
  Ewald energy   TEWEN  =     91294.51541456
  -Hartree energ DENC   =   -119759.57002737
  -exchange      EXHF   =         0.00000000
  -V(xc)+E(xc)   XCENC  =       156.91314923
  PAW double counting   =     25286.02747792   -24269.00514459
  entropy T*S    EENTRO =        -1.08555399
  eigenvalues    EBANDS =      -355.40712189
  atomic energy  EATOM  =     26592.19924351
  Solvation  Ediel_sol  =         0.00000000
  ---------------------------------------------------
  free energy    TOTEN  =       -93.93245858 eV

  energy without entropy =      -92.84690459  energy(sigma->0) =      -93.38968159


--------------------------------------------------------------------------------------------------------




----------------------------------------- Iteration    1(   3)  ---------------------------------------


     EDDAV:  cpu time   84.9911: real time   85.7656
       DOS:  cpu time    0.0040: real time    0.0033
    --------------------------------------------
      LOOP:  cpu time   84.9971: real time   85.8396

 eigenvalue-minimisations  : 29360
 total energy-change (2. order) :-0.1605706E+03  (-0.1455955E+03)
 number of electron     372.0000000 magnetization 
 augmentation part      372.0000000 magnetization 

 Free energy of the ion-electron system (eV)
  ---------------------------------------------------
  alpha Z        PSCENC =       961.48010405
  Ewald energy   TEWEN  =     91294.51541456
  -Hartree energ DENC   =   -119759.57002737
  -exchange      EXHF   =         0.00000000
  -V(xc)+E(xc)   XCENC  =       156.91314923
  PAW double counting   =     25286.02747792   -24269.00514459
  entropy T*S    EENTRO =        -1.89302959
  eigenvalues    EBANDS =      -515.17022417
  atomic energy  EATOM  =     26592.19924351
  Solvation  Ediel_sol  =         0.00000000
  ---------------------------------------------------
  free energy    TOTEN  =      -254.50303646 eV

  energy without entropy =     -252.61000687  energy(sigma->0) =     -253.55652167


--------------------------------------------------------------------------------------------------------




----------------------------------------- Iteration    1(   4)  ---------------------------------------


     EDDAV:  cpu time   88.0716: real time   88.0513
       DOS:  cpu time    0.0040: real time    0.0034
    CHARGE:  cpu time    2.4676: real time    2.4669
    MIXING:  cpu time    0.0030: real time    0.0025
    --------------------------------------------
      LOOP:  cpu time   90.5492: real time   90.5732

 eigenvalue-minimisations  : 31150
 total energy-change (2. order) :-0.6998276E+01  (-0.6781040E+01)
 number of electron     371.9999994 magnetization 
 augmentation part      104.7140454 magnetization 

 Broyden mixing:
  rms(total) = 0.62762E+01    rms(broyden)= 0.62761E+01
  rms(prec ) = 0.64028E+01
  weight for this iteration     100.00

 Free energy of the ion-electron system (eV)
  ---------------------------------------------------
  alpha Z        PSCENC =       961.48010405
  Ewald energy   TEWEN  =     91294.51541456
  -Hartree energ DENC   =   -119759.57002737
  -exchange      EXHF   =         0.00000000
  -V(xc)+E(xc)   XCENC  =       156.91314923
  PAW double counting   =     25286.02747792   -24269.00514459
  entropy T*S    EENTRO =        -1.95212589
  eigenvalues    EBANDS =      -522.10940338
  atomic energy  EATOM  =     26592.19924351
  Solvation  Ediel_sol  =         0.00000000
  ---------------------------------------------------
  free energy    TOTEN  =      -261.50131197 eV

  energy without entropy =     -259.54918608  energy(sigma->0) =     -260.52524902


--------------------------------------------------------------------------------------------------------




----------------------------------------- Iteration    1(   5)  ---------------------------------------


    POTLOK:  cpu time    0.5709: real time    0.5708
    SETDIJ:  cpu time    0.0090: real time    0.0092
    EDDIAG:  cpu time   11.8042: real time   11.7952
  RMM-DIIS:  cpu time   29.1006: real time   29.1301
    ORTHCH:  cpu time    3.0855: real time    3.1212
       DOS:  cpu time    0.0030: real time    0.0037
    CHARGE:  cpu time    2.3366: real time    2.3351
    MIXING:  cpu time    0.0030: real time    0.0022
    --------------------------------------------
      LOOP:  cpu time   46.9149: real time   47.0018

 eigenvalue-minimisations  : 25886
 total energy-change (2. order) : 0.1278832E+02  (-0.5540892E+01)
 number of electron     372.0000012 magnetization 
 augmentation part      111.3384402 magnetization 

 Broyden mixing:
  rms(total) = 0.43930E+01    rms(broyden)= 0.43928E+01
  rms(prec ) = 0.46681E+01
  weight for this iteration     100.00

 eigenvalues of (default mixing * dielectric matrix)
  average eigenvalue GAMMA=   1.2860
  1.2860

 Free energy of the ion-electron system (eV)
  ---------------------------------------------------
  alpha Z        PSCENC =       961.48010405
  Ewald energy   TEWEN  =     91294.51541456
  -Hartree energ DENC   =   -119325.48117245
  -exchange      EXHF   =         0.00000000
  -V(xc)+E(xc)   XCENC  =       148.67939377
  PAW double counting   =     28070.18345315   -27106.12720919
  entropy T*S    EENTRO =        -2.05495540
  eigenvalues    EBANDS =      -882.10726119
  atomic energy  EATOM  =     26592.19924351
  Solvation  Ediel_sol  =         0.00000000
  ---------------------------------------------------
  free energy    TOTEN  =      -248.71298921 eV

  energy without entropy =     -246.65803381  energy(sigma->0) =     -247.68551151


--------------------------------------------------------------------------------------------------------




----------------------------------------- Iteration    1(   6)  ---------------------------------------


    POTLOK:  cpu time    0.0560: real time    0.0559
    SETDIJ:  cpu time    0.0090: real time    0.0092
    EDDIAG:  cpu time   10.8653: real time   10.8702
  RMM-DIIS:  cpu time   28.7666: real time   28.9901
    ORTHCH:  cpu time    2.9296: real time    3.0362
       DOS:  cpu time    0.0030: real time    0.0035
    CHARGE:  cpu time    2.3126: real time    2.3963
    MIXING:  cpu time    0.0030: real time    0.0024
    --------------------------------------------
      LOOP:  cpu time   44.9462: real time   45.3972

 eigenvalue-minimisations  : 25643
 total energy-change (2. order) :-0.3773653E+02  (-0.7381203E+01)
 number of electron     371.9999956 magnetization 
 augmentation part      109.3695243 magnetization 

 Broyden mixing:
  rms(total) = 0.54998E+01    rms(broyden)= 0.54996E+01
  rms(prec ) = 0.66377E+01
  weight for this iteration     100.00

 eigenvalues of (default mixing * dielectric matrix)
  average eigenvalue GAMMA=   1.1308
  1.9820  0.2796

 Free energy of the ion-electron system (eV)
  ---------------------------------------------------
  alpha Z        PSCENC =       961.48010405
  Ewald energy   TEWEN  =     91294.51541456
  -Hartree energ DENC   =   -119635.89187498
  -exchange      EXHF   =         0.00000000
  -V(xc)+E(xc)   XCENC  =       146.68998249
  PAW double counting   =     30032.43956056   -29088.29053511
  entropy T*S    EENTRO =        -1.21786787
  eigenvalues    EBANDS =      -588.37354199
  atomic energy  EATOM  =     26592.19924351
  Solvation  Ediel_sol  =         0.00000000
  ---------------------------------------------------
  free energy    TOTEN  =      -286.44951480 eV

  energy without entropy =     -285.23164692  energy(sigma->0) =     -285.84058086


--------------------------------------------------------------------------------------------------------




----------------------------------------- Iteration    1(   7)  ---------------------------------------


    POTLOK:  cpu time    0.1430: real time    0.1509
    SETDIJ:  cpu time    0.0100: real time    0.0092
    EDDIAG:  cpu time   11.2563: real time   11.2638
  RMM-DIIS:  cpu time   28.4517: real time   28.7035
    ORTHCH:  cpu time    3.9024: real time    3.9981
       DOS:  cpu time    0.0040: real time    0.0037
    CHARGE:  cpu time    2.3766: real time    2.3745
    MIXING:  cpu time    0.0030: real time    0.0023
    --------------------------------------------
      LOOP:  cpu time   46.1480: real time   46.5400

 eigenvalue-minimisations  : 25163
 total energy-change (2. order) : 0.4189368E+02  (-0.2511108E+01)
 number of electron     371.9999992 magnetization 
 augmentation part      112.6706283 magnetization 

 Broyden mixing:
  rms(total) = 0.12688E+01    rms(broyden)= 0.12687E+01
  rms(prec ) = 0.14570E+01
  weight for this iteration     100.00

 eigenvalues of (default mixing * dielectric matrix)
  average eigenvalue GAMMA=   1.0685
  2.0099  0.8919  0.3038

 Free energy of the ion-electron system (eV)
  ---------------------------------------------------
  alpha Z        PSCENC =       961.48010405
  Ewald energy   TEWEN  =     91294.51541456
  -Hartree energ DENC   =   -119386.91071242
  -exchange      EXHF   =         0.00000000
  -V(xc)+E(xc)   XCENC  =       145.45148567
  PAW double counting   =     31869.99079723   -30948.61078825
  entropy T*S    EENTRO =        -2.05323805
  eigenvalues    EBANDS =      -770.61814289
  atomic energy  EATOM  =     26592.19924351
  Solvation  Ediel_sol  =         0.00000000
  ---------------------------------------------------
  free energy    TOTEN  =      -244.55583660 eV

  energy without entropy =     -242.50259855  energy(sigma->0) =     -243.52921758


--------------------------------------------------------------------------------------------------------




----------------------------------------- Iteration    1(   8)  ---------------------------------------


    POTLOK:  cpu time    0.0890: real time    0.0989
    SETDIJ:  cpu time    0.0090: real time    0.0092
    EDDIAG:  cpu time   10.7144: real time   10.7968
  RMM-DIIS:  cpu time   28.1547: real time   29.2080
    ORTHCH:  cpu time    2.8996: real time    2.9583
       DOS:  cpu time    0.0040: real time    0.0037
    CHARGE:  cpu time    2.3696: real time    2.3684
    MIXING:  cpu time    0.0030: real time    0.0025
    --------------------------------------------
      LOOP:  cpu time   44.2433: real time   45.4979

 eigenvalue-minimisations  : 25289
 total energy-change (2. order) :-0.1784347E+01  (-0.1658283E+01)
 number of electron     371.9999988 magnetization 
 augmentation part      112.3561264 magnetization 

 Broyden mixing:
  rms(total) = 0.18393E+01    rms(broyden)= 0.18392E+01
  rms(prec ) = 0.23260E+01
  weight for this iteration     100.00

 eigenvalues of (default mixing * dielectric matrix)
  average eigenvalue GAMMA=   0.9432
  2.0874  1.0856  0.3000  0.3000

 Free energy of the ion-electron system (eV)
  ---------------------------------------------------
  alpha Z        PSCENC =       961.48010405
  Ewald energy   TEWEN  =     91294.51541456
  -Hartree energ DENC   =   -119415.95774121
  -exchange      EXHF   =         0.00000000
  -V(xc)+E(xc)   XCENC  =       146.31183994
  PAW double counting   =     32199.84035463   -31278.99975289
  entropy T*S    EENTRO =        -2.01016105
  eigenvalues    EBANDS =      -743.71948503
  atomic energy  EATOM  =     26592.19924351
  Solvation  Ediel_sol  =         0.00000000
  ---------------------------------------------------
  free energy    TOTEN  =      -246.34018349 eV

  energy without entropy =     -244.33002244  energy(sigma->0) =     -245.33510296


--------------------------------------------------------------------------------------------------------




----------------------------------------- Iteration    1(   9)  ---------------------------------------


    POTLOK:  cpu time    0.1590: real time    0.1589
    SETDIJ:  cpu time    0.0780: real time    0.0782
    EDDIAG:  cpu time   10.8793: real time   10.8819
  RMM-DIIS:  cpu time   29.1046: real time   29.2494
    ORTHCH:  cpu time    3.0335: real time    3.0539
       DOS:  cpu time    0.0040: real time    0.0037
    CHARGE:  cpu time    2.3186: real time    2.3176
    MIXING:  cpu time    0.0020: real time    0.0026
    --------------------------------------------
      LOOP:  cpu time   45.5811: real time   45.7815

 eigenvalue-minimisations  : 26089
 total energy-change (2. order) :-0.3311879E+01  (-0.3523861E+00)
 number of electron     372.0000004 magnetization 
 augmentation part      112.0942464 magnetization 

 Broyden mixing:
  rms(total) = 0.24996E+01    rms(broyden)= 0.24995E+01
  rms(prec ) = 0.39412E+01
  weight for this iteration     100.00

 eigenvalues of (default mixing * dielectric matrix)
  average eigenvalue GAMMA=   0.7938
  2.1257  1.1237  0.3077  0.3077  0.1041

 Free energy of the ion-electron system (eV)
  ---------------------------------------------------
  alpha Z        PSCENC =       961.48010405
  Ewald energy   TEWEN  =     91294.51541456
  -Hartree energ DENC   =   -119417.44150174
  -exchange      EXHF   =         0.00000000
  -V(xc)+E(xc)   XCENC  =       146.52246803
  PAW double counting   =     32359.52548869   -31439.62946051
  entropy T*S    EENTRO =        -1.67466947
  eigenvalues    EBANDS =      -745.14914928
  atomic energy  EATOM  =     26592.19924351
  Solvation  Ediel_sol  =         0.00000000
  ---------------------------------------------------
  free energy    TOTEN  =      -249.65206217 eV

  energy without entropy =     -247.97739270  energy(sigma->0) =     -248.81472744


--------------------------------------------------------------------------------------------------------




----------------------------------------- Iteration    1(  10)  ---------------------------------------


    POTLOK:  cpu time    0.0580: real time    0.0585
    SETDIJ:  cpu time    0.0090: real time    0.0094
    EDDIAG:  cpu time   10.9113: real time   10.9975
  RMM-DIIS:  cpu time   28.9526: real time   29.0854
    ORTHCH:  cpu time    2.9985: real time    3.0259
       DOS:  cpu time    0.0030: real time    0.0038
    CHARGE:  cpu time    2.3746: real time    2.3728
    MIXING:  cpu time    0.0030: real time    0.0027
    --------------------------------------------
      LOOP:  cpu time   45.3121: real time   45.5787

 eigenvalue-minimisations  : 25820
 total energy-change (2. order) : 0.6903845E+01  (-0.1248633E+00)
 number of electron     371.9999996 magnetization 
 augmentation part      112.1475834 magnetization 

 Broyden mixing:
  rms(total) = 0.52593E+00    rms(broyden)= 0.52577E+00
  rms(prec ) = 0.57780E+00
  weight for this iteration     100.00

 eigenvalues of (default mixing * dielectric matrix)
  average eigenvalue GAMMA=   0.7322
  2.1315  1.0999  0.3801  0.3801  0.3008  0.1012

 Free energy of the ion-electron system (eV)
  ---------------------------------------------------
  alpha Z        PSCENC =       961.48010405
  Ewald energy   TEWEN  =     91294.51541456
  -Hartree energ DENC   =   -119429.20140756
  -exchange      EXHF   =         0.00000000
  -V(xc)+E(xc)   XCENC  =       146.55338009
  PAW double counting   =     32436.08106680   -31516.81830578
  entropy T*S    EENTRO =        -2.11054849
  eigenvalues    EBANDS =      -725.44716407
  atomic energy  EATOM  =     26592.19924351
  Solvation  Ediel_sol  =         0.00000000
  ---------------------------------------------------
  free energy    TOTEN  =      -242.74821688 eV

  energy without entropy =     -240.63766839  energy(sigma->0) =     -241.69294264


--------------------------------------------------------------------------------------------------------




----------------------------------------- Iteration    1(  11)  ---------------------------------------


    POTLOK:  cpu time    0.2410: real time    0.2409
    SETDIJ:  cpu time    0.0520: real time    0.0524
    EDDIAG:  cpu time   10.6804: real time   10.6933
  RMM-DIIS:  cpu time   30.4494: real time   30.4381
    ORTHCH:  cpu time    3.1175: real time    3.1452
       DOS:  cpu time    0.0030: real time    0.0036
    CHARGE:  cpu time    2.3176: real time    2.3155
    MIXING:  cpu time    0.0030: real time    0.0029
    --------------------------------------------
      LOOP:  cpu time   46.8649: real time   46.9289

 eigenvalue-minimisations  : 26097
 total energy-change (2. order) : 0.1844787E+00  (-0.4072978E-01)
 number of electron     371.9999996 magnetization 
 augmentation part      112.1807062 magnetization 

 Broyden mixing:
  rms(total) = 0.41764E+00    rms(broyden)= 0.41763E+00
  rms(prec ) = 0.46193E+00
  weight for this iteration     100.00

 eigenvalues of (default mixing * dielectric matrix)
  average eigenvalue GAMMA=   0.7203
  2.1477  0.9716  0.7145  0.5317  0.2868  0.2868  0.1027

 Free energy of the ion-electron system (eV)
  ---------------------------------------------------
  alpha Z        PSCENC =       961.48010405
  Ewald energy   TEWEN  =     91294.51541456
  -Hartree energ DENC   =   -119429.04385970
  -exchange      EXHF   =         0.00000000
  -V(xc)+E(xc)   XCENC  =       146.56664627
  PAW double counting   =     32439.73334037   -31520.63869168
  entropy T*S    EENTRO =        -2.12543149
  eigenvalues    EBANDS =      -725.25050409
  atomic energy  EATOM  =     26592.19924351
  Solvation  Ediel_sol  =         0.00000000
  ---------------------------------------------------
  free energy    TOTEN  =      -242.56373821 eV

  energy without entropy =     -240.43830672  energy(sigma->0) =     -241.50102247


--------------------------------------------------------------------------------------------------------




----------------------------------------- Iteration    1(  12)  ---------------------------------------


    POTLOK:  cpu time    0.0590: real time    0.0597
    SETDIJ:  cpu time    0.0100: real time    0.0094
    EDDIAG:  cpu time   10.7574: real time   10.7488
  RMM-DIIS:  cpu time   30.0204: real time   30.2920
    ORTHCH:  cpu time    3.0275: real time    3.0448
       DOS:  cpu time    0.0030: real time    0.0036
    CHARGE:  cpu time    2.3146: real time    2.3530
    MIXING:  cpu time    0.0030: real time    0.0030
    --------------------------------------------
      LOOP:  cpu time   46.1960: real time   46.5365

 eigenvalue-minimisations  : 26385
 total energy-change (2. order) : 0.4193182E-01  (-0.1624538E-01)
 number of electron     371.9999996 magnetization 
 augmentation part      112.2039726 magnetization 

 Broyden mixing:
  rms(total) = 0.35013E+00    rms(broyden)= 0.35013E+00
  rms(prec ) = 0.41368E+00
  weight for this iteration     100.00

 eigenvalues of (default mixing * dielectric matrix)
  average eigenvalue GAMMA=   0.7283
  2.2203  0.9633  0.9633  0.6056  0.3521  0.3521  0.2679  0.1019

 Free energy of the ion-electron system (eV)
  ---------------------------------------------------
  alpha Z        PSCENC =       961.48010405
  Ewald energy   TEWEN  =     91294.51541456
  -Hartree energ DENC   =   -119432.02235989
  -exchange      EXHF   =         0.00000000
  -V(xc)+E(xc)   XCENC  =       146.60939682
  PAW double counting   =     32443.48350619   -31524.55686586
  entropy T*S    EENTRO =        -2.12342251
  eigenvalues    EBANDS =      -722.10682326
  atomic energy  EATOM  =     26592.19924351
  Solvation  Ediel_sol  =         0.00000000
  ---------------------------------------------------
  free energy    TOTEN  =      -242.52180639 eV

  energy without entropy =     -240.39838388  energy(sigma->0) =     -241.46009513


--------------------------------------------------------------------------------------------------------




----------------------------------------- Iteration    1(  13)  ---------------------------------------


    POTLOK:  cpu time    0.2670: real time    0.2673
    SETDIJ:  cpu time    0.0090: real time    0.0093
    EDDIAG:  cpu time   10.6824: real time   10.8851
  RMM-DIIS:  cpu time   29.1316: real time   29.3879
    ORTHCH:  cpu time    3.0585: real time    3.0755
       DOS:  cpu time    0.0040: real time    0.0036
    CHARGE:  cpu time    2.3716: real time    2.3696
    MIXING:  cpu time    0.0030: real time    0.0031
    --------------------------------------------
      LOOP:  cpu time   45.5291: real time   46.0451

 eigenvalue-minimisations  : 25822
 total energy-change (2. order) : 0.3808143E-01  (-0.8742029E-02)
 number of electron     371.9999995 magnetization 
 augmentation part      112.1834455 magnetization 

 Broyden mixing:
  rms(total) = 0.23299E+00    rms(broyden)= 0.23298E+00
  rms(prec ) = 0.27913E+00
  weight for this iteration     100.00

 eigenvalues of (default mixing * dielectric matrix)
  average eigenvalue GAMMA=   0.7736
  2.3449  1.1590  1.1590  0.8665  0.4548  0.3129  0.3129  0.2502  0.1020

 Free energy of the ion-electron system (eV)
  ---------------------------------------------------
  alpha Z        PSCENC =       961.48010405
  Ewald energy   TEWEN  =     91294.51541456
  -Hartree energ DENC   =   -119441.61079063
  -exchange      EXHF   =         0.00000000
  -V(xc)+E(xc)   XCENC  =       146.64428050
  PAW double counting   =     32470.75804336   -31552.16137386
  entropy T*S    EENTRO =        -2.12028937
  eigenvalues    EBANDS =      -712.18835708
  atomic energy  EATOM  =     26592.19924351
  Solvation  Ediel_sol  =         0.00000000
  ---------------------------------------------------
  free energy    TOTEN  =      -242.48372496 eV

  energy without entropy =     -240.36343559  energy(sigma->0) =     -241.42358028


--------------------------------------------------------------------------------------------------------




----------------------------------------- Iteration    1(  14)  ---------------------------------------


    POTLOK:  cpu time    0.0570: real time    0.0581
    SETDIJ:  cpu time    0.0090: real time    0.0095
    EDDIAG:  cpu time   10.7694: real time   10.7942
  RMM-DIIS:  cpu time   29.0026: real time   29.2005
    ORTHCH:  cpu time    2.9885: real time    3.0289
       DOS:  cpu time    0.0040: real time    0.0037
    CHARGE:  cpu time    2.2697: real time    2.3406
    MIXING:  cpu time    0.0030: real time    0.0033
    --------------------------------------------
      LOOP:  cpu time   45.1051: real time   45.4616

 eigenvalue-minimisations  : 25846
 total energy-change (2. order) : 0.2670142E-01  (-0.5277536E-02)
 number of electron     371.9999993 magnetization 
 augmentation part      112.1327865 magnetization 

 Broyden mixing:
  rms(total) = 0.12146E+00    rms(broyden)= 0.12145E+00
  rms(prec ) = 0.14276E+00
  weight for this iteration     100.00

 eigenvalues of (default mixing * dielectric matrix)
  average eigenvalue GAMMA=   0.7617
  2.2728  1.4335  1.2560  0.7869  0.5573  0.1020  0.3401  0.3401  0.2828  0.2458

 Free energy of the ion-electron system (eV)
  ---------------------------------------------------
  alpha Z        PSCENC =       961.48010405
  Ewald energy   TEWEN  =     91294.51541456
  -Hartree energ DENC   =   -119457.08195187
  -exchange      EXHF   =         0.00000000
  -V(xc)+E(xc)   XCENC  =       146.71569779
  PAW double counting   =     32488.55850827   -31570.12050999
  entropy T*S    EENTRO =        -2.11529187
  eigenvalues    EBANDS =      -696.60823799
  atomic energy  EATOM  =     26592.19924351
  Solvation  Ediel_sol  =         0.00000000
  ---------------------------------------------------
  free energy    TOTEN  =      -242.45702355 eV

  energy without entropy =     -240.34173168  energy(sigma->0) =     -241.39937761


--------------------------------------------------------------------------------------------------------




----------------------------------------- Iteration    1(  15)  ---------------------------------------


    POTLOK:  cpu time    1.5098: real time    1.9780
    SETDIJ:  cpu time    0.1410: real time    0.1729
    EDDIAG:  cpu time   11.8492: real time   12.2143
  RMM-DIIS:  cpu time   29.5005: real time   29.5061
    ORTHCH:  cpu time    3.0875: real time    3.1212
       DOS:  cpu time    0.0040: real time    0.0038
    CHARGE:  cpu time    2.3626: real time    2.3612
    MIXING:  cpu time    0.0030: real time    0.0035
    --------------------------------------------
      LOOP:  cpu time   48.4596: real time   49.5101

 eigenvalue-minimisations  : 25838
 total energy-change (2. order) : 0.1055852E-01  (-0.1165325E-02)
 number of electron     371.9999994 magnetization 
 augmentation part      112.1190361 magnetization 

 Broyden mixing:
  rms(total) = 0.73586E-01    rms(broyden)= 0.73584E-01
  rms(prec ) = 0.85570E-01
  weight for this iteration     100.00

 eigenvalues of (default mixing * dielectric matrix)
  average eigenvalue GAMMA=   0.8098
  2.2937  2.2937  1.1338  0.7425  0.7425  0.1020  0.4132  0.3347  0.3055  0.3055
  0.2409

 Free energy of the ion-electron system (eV)
  ---------------------------------------------------
  alpha Z        PSCENC =       961.48010405
  Ewald energy   TEWEN  =     91294.51541456
  -Hartree energ DENC   =   -119462.17091031
  -exchange      EXHF   =         0.00000000
  -V(xc)+E(xc)   XCENC  =       146.76567251
  PAW double counting   =     32464.95199511   -31546.23960224
  entropy T*S    EENTRO =        -2.11827204
  eigenvalues    EBANDS =      -691.83011018
  atomic energy  EATOM  =     26592.19924351
  Solvation  Ediel_sol  =         0.00000000
  ---------------------------------------------------
  free energy    TOTEN  =      -242.44646503 eV

  energy without entropy =     -240.32819299  energy(sigma->0) =     -241.38732901


--------------------------------------------------------------------------------------------------------




----------------------------------------- Iteration    1(  16)  ---------------------------------------


    POTLOK:  cpu time    0.0590: real time    0.0595
    SETDIJ:  cpu time    0.0090: real time    0.0094
    EDDIAG:  cpu time   10.9913: real time   11.0244
  RMM-DIIS:  cpu time   29.8965: real time   30.0392
    ORTHCH:  cpu time    3.1265: real time    3.1457
       DOS:  cpu time    0.0040: real time    0.0036
    CHARGE:  cpu time    2.3236: real time    2.3220
    MIXING:  cpu time    0.0030: real time    0.0036
    --------------------------------------------
      LOOP:  cpu time   46.4139: real time   46.6292

 eigenvalue-minimisations  : 25754
 total energy-change (2. order) : 0.4531375E-02  (-0.3715137E-03)
 number of electron     371.9999994 magnetization 
 augmentation part      112.1082295 magnetization 

 Broyden mixing:
  rms(total) = 0.29847E-01    rms(broyden)= 0.29844E-01
  rms(prec ) = 0.33946E-01
  weight for this iteration     100.00

 eigenvalues of (default mixing * dielectric matrix)
  average eigenvalue GAMMA=   0.7960
  2.3265  2.3265  1.1783  0.6769  0.6769  0.6479  0.4515  0.1020  0.3231  0.3231
  0.2789  0.2401

 Free energy of the ion-electron system (eV)
  ---------------------------------------------------
  alpha Z        PSCENC =       961.48010405
  Ewald energy   TEWEN  =     91294.51541456
  -Hartree energ DENC   =   -119467.90220137
  -exchange      EXHF   =         0.00000000
  -V(xc)+E(xc)   XCENC  =       146.82254739
  PAW double counting   =     32433.24319042   -31514.17521527
  entropy T*S    EENTRO =        -2.12183876
  eigenvalues    EBANDS =      -686.50317818
  atomic energy  EATOM  =     26592.19924351
  Solvation  Ediel_sol  =         0.00000000
[...]
    172       1.1765      1.90871
    173       1.1838      1.90219
    174       1.2052      1.88019
    175       1.2264      1.85392
    176       1.2552      1.80991
    177       1.2766      1.76980
    178       1.2985      1.72130
    179       1.3579      1.54642
    180       1.4012      1.37717
    181       1.4197      1.29505
    182       1.4346      1.22583
    183       1.4467      1.16773
    184       1.4715      1.04491
    185       1.4982      0.91186
    186       1.5030      0.88787
    187       1.6153      0.41257
    188       1.6884      0.22241
    189       1.7009      0.19889
    190       1.7356      0.14477
    191       1.7444      0.13342
    192       1.7580      0.11742
    193       1.7720      0.10287
    194       1.7942      0.08322
    195       1.8190      0.06555
    196       1.8389      0.05402
    197       2.3451      0.00035
    198       2.7323      0.00001
    199       2.9446      0.00000
    200       2.9514      0.00000
    201       2.9580      0.00000
    202       2.9920      0.00000
    203       3.2825      0.00000
    204       3.3269      0.00000
    205       3.4602      0.00000
    206       3.7259      0.00000
    207       3.7582      0.00000
    208       3.8522      0.00000
    209       4.0860      0.00000
    210       4.1986      0.00000
    211       4.3279      0.00000
    212       4.3354      0.00000
    213       4.4177      0.00000
    214       4.5163      0.00000
    215       4.6036      0.00000
    216       4.6708      0.00000
    217       4.8592      0.00000
    218       4.9959      0.00000
    219       5.1916      0.00000
    220       5.3590      0.00000
    221       5.5812      0.00000
    222       6.0876      0.00000
    223       6.1156      0.00000
    224       6.1813      0.00000
    225       6.4706      0.00000


--------------------------------------------------------------------------------------------------------


 soft charge-density along one line, spin component           1
         0         1         2         3         4         5         6         7         8         9
 total charge-density along one line
 
 pseudopotential strength for first ion, spin component:           1
 -6.016   0.000   0.000  -0.012   0.000  -6.132   0.000   0.000
  0.000  -5.910  -0.001   0.000  -0.010   0.000  -6.029  -0.001
  0.000  -0.001  -5.906   0.001  -0.000   0.000  -0.001  -6.025
 -0.012   0.000   0.001  -5.911   0.000  -0.012   0.000   0.001
  0.000  -0.010  -0.000   0.000  -6.016   0.000  -0.010  -0.000
 -6.132   0.000   0.000  -0.012   0.000  -6.232   0.000   0.000
  0.000  -6.029  -0.001   0.000  -0.010   0.000  -6.132  -0.001
  0.000  -0.001  -6.025   0.001  -0.000   0.000  -0.001  -6.128
 -0.012   0.000   0.001  -6.030   0.000  -0.011   0.000   0.001
  0.000  -0.010  -0.000   0.000  -6.132   0.000  -0.010  -0.000
 -0.000   0.001  -0.032  -0.000   0.000  -0.000   0.001  -0.032
 -0.000   0.001  -0.048  -0.000   0.000  -0.000   0.001  -0.047
  0.000  -0.004  -0.000  -0.000   0.000   0.000  -0.003  -0.000
 -0.000  -0.000  -0.008   0.000  -0.000  -0.000  -0.000  -0.008
  0.000  -0.000  -0.000  -0.004   0.000   0.000  -0.000  -0.000
  0.000  -0.002  -0.000  -0.000   0.001   0.000  -0.002  -0.000
 -0.000  -0.000  -0.008   0.000  -0.000  -0.000  -0.000  -0.008
  0.001  -0.000  -0.000  -0.002   0.000   0.001  -0.000  -0.000
 total augmentation occupancy for first ion, spin component:           1
  3.149   0.001   0.012  -0.203   0.001  -2.020  -0.001  -0.008   0.031  -0.001   0.001   0.000  -0.000  -0.001  -0.049   0.000
  0.001   3.913  -0.027   0.007  -0.201  -0.001  -2.094   0.017  -0.004   0.036  -0.012   0.002  -0.257   0.004   0.000   0.013
  0.012  -0.027   4.168   0.022  -0.009  -0.008   0.017  -2.573  -0.015   0.006   0.767  -0.119   0.000  -0.315  -0.002   0.000
 -0.203   0.007   0.022   3.884  -0.007   0.038  -0.004  -0.015  -2.076   0.005   0.005  -0.000  -0.000  -0.003  -0.257  -0.000
  0.001  -0.201  -0.009  -0.007   3.154  -0.001   0.029   0.006   0.005  -2.024  -0.002   0.000  -0.050   0.001  -0.001   0.003
 -2.020  -0.001  -0.008   0.038  -0.001   2.533   0.000   0.005   0.085   0.000  -0.001  -0.000   0.000   0.000   0.049   0.000
 -0.001  -2.094   0.017  -0.004   0.029   0.000   2.104  -0.011   0.002   0.087   0.006   0.000   0.245  -0.002  -0.000  -0.017
 -0.008   0.017  -2.573  -0.015   0.006   0.005  -0.011   2.741   0.010  -0.004  -0.663   0.083  -0.000   0.369   0.001   0.000
  0.031  -0.004  -0.015  -2.076   0.005   0.085   0.002   0.010   2.093  -0.003  -0.003  -0.000   0.000   0.002   0.245   0.000
 -0.001   0.036   0.006   0.005  -2.024   0.000   0.087  -0.004  -0.003   2.536   0.001   0.000   0.049  -0.001   0.001  -0.003
  0.001  -0.012   0.767   0.005  -0.002  -0.001   0.006  -0.663  -0.003   0.001   2.236  -0.446   0.001   0.185  -0.001  -0.000
  0.000   0.002  -0.119  -0.000   0.000  -0.000   0.000   0.083  -0.000   0.000  -0.446   0.110  -0.000  -0.065  -0.000   0.000
 -0.000  -0.257   0.000  -0.000  -0.050   0.000   0.245  -0.000   0.000   0.049   0.001  -0.000   0.259   0.000   0.000  -0.014
 -0.001   0.004  -0.315  -0.003   0.001   0.000  -0.002   0.369   0.002  -0.001   0.185  -0.065   0.000   0.148   0.000  -0.000
 -0.049   0.000  -0.002  -0.257  -0.001   0.049  -0.000   0.001   0.245   0.001  -0.001  -0.000   0.000   0.000   0.260  -0.000
  0.000   0.013   0.000  -0.000   0.003   0.000  -0.017   0.000   0.000  -0.003  -0.000   0.000  -0.014  -0.000  -0.000   0.001
 -0.000  -0.000   0.004   0.000   0.000   0.000  -0.000  -0.019  -0.000  -0.000  -0.018   0.005  -0.000  -0.009  -0.000   0.000
  0.003  -0.000   0.000   0.013   0.000  -0.003   0.000  -0.000  -0.017   0.000   0.000  -0.000  -0.000  -0.000  -0.014   0.000


------------------------ aborting loop because EDIFF is reached ----------------------------------------


    CHARGE:  cpu time    2.4096: real time    2.4079
    FORLOC:  cpu time    0.0180: real time    0.0177
    FORNL :  cpu time   11.3813: real time   11.3735
    STRESS:  cpu time   34.0768: real time   34.0906
    FORCOR:  cpu time    0.0710: real time    0.0711
    FORHAR:  cpu time    0.0310: real time    0.0302
    MIXING:  cpu time    0.0080: real time    0.0087
    OFIELD:  cpu time    0.0000: real time    0.0000

  FORCE on cell =-STRESS in cart. coord.  units (eV):
  Direction    XX          YY          ZZ          XY          YZ          ZX
  --------------------------------------------------------------------------------------
  Alpha Z   961.48010   961.48010   961.48010
  Ewald  110993.48026111087.34967************   -70.43864    -3.41576     2.76110
  Hartree117581.51044117643.39740************   -49.85905    -0.98156     0.14011
  E(xc)   -1633.81808 -1633.73826 -1643.44676    -0.02043    -0.01231     0.02426
  Local  ************************239662.26294   122.41882     3.77506    -1.89993
  n-local   137.22466   138.09925   125.50621    -0.21284    -0.28192     0.31237
  augment  1881.06313  1880.19684  1926.91944     0.08273     0.28007    -0.43210
  Kinetic  5350.32465  5350.27443  5481.41692    -1.25941     0.44936    -0.85066
  Fock        0.00000     0.00000     0.00000     0.00000     0.00000     0.00000
  -------------------------------------------------------------------------------------
  Total     -36.20116   -36.82071    -0.36363     0.71118    -0.18706     0.05514
  in kB     -43.16544   -43.90418    -0.43359     0.84799    -0.22305     0.06574
  external pressure =      -29.17 kB  Pullay stress =        0.00 kB


 VOLUME and BASIS-vectors are now :
 -----------------------------------------------------------------------------
  energy-cutoff  :      400.00
  volume of cell :     1343.68
      direct lattice vectors                 reciprocal lattice vectors
     8.421641764  0.000000000  0.000000000     0.118741693 -0.068555548  0.000000000
     4.210820882  7.293355709  0.000000000     0.000000000  0.137111097  0.000000000
     0.000000000  0.000000000 21.876241706     0.000000000  0.000000000  0.045711691

  length of vectors
     8.421641764  8.421641764 21.876241706     0.137111097  0.137111097  0.045711691


 FORCES acting on ions
    electron-ion (+dipol)            ewald-force                    non-local-force                 convergence-correction
 -----------------------------------------------------------------------------------------------
   0.218E+00 0.458E+00 0.233E+04   -.257E+00 -.420E+00 -.233E+04   0.290E-01 -.350E-01 -.109E+01   -.484E-04 -.591E-04 0.170E-03
   -.141E+00 -.114E+00 0.233E+04   0.152E+00 0.114E+00 -.233E+04   -.177E-01 -.653E-02 -.123E+01   0.145E-03 -.197E-03 0.340E-04
   -.948E-01 0.119E+00 0.233E+04   0.101E+00 -.127E+00 -.233E+04   0.840E-02 0.269E-02 -.124E+01   -.957E-04 -.895E-04 0.166E-03
   -.389E+00 -.801E-01 0.233E+04   0.396E+00 0.632E-01 -.233E+04   -.118E-01 0.271E-02 -.125E+01   -.828E-04 -.186E-04 -.153E-04
   0.846E-01 -.169E+00 0.233E+04   -.822E-01 0.170E+00 -.233E+04   0.298E-02 0.996E-02 -.124E+01   0.115E-03 -.168E-03 -.286E-04
   0.317E+00 0.177E+00 0.233E+04   -.312E+00 -.181E+00 -.233E+04   -.287E-02 0.690E-03 -.121E+01   -.324E-04 -.104E-04 0.112E-03
   -.235E+00 -.111E+00 0.233E+04   0.268E+00 0.123E+00 -.233E+04   -.670E-02 -.238E-03 -.124E+01   -.100E-03 0.212E-03 0.160E-03
   0.534E+00 -.325E-01 0.233E+04   -.520E+00 -.270E-01 -.233E+04   -.164E-01 0.465E-01 -.109E+01   0.167E-03 0.119E-03 0.119E-03
   -.258E+00 -.280E+00 0.233E+04   0.253E+00 0.286E+00 -.233E+04   -.606E-02 -.725E-02 -.125E+01   -.665E-04 0.212E-03 0.136E-03
   -.257E+01 -.794E+00 0.837E+03   0.246E+01 0.718E+00 -.837E+03   0.934E-01 0.658E-01 -.379E+00   -.139E-03 -.224E-03 0.206E-03
   0.366E+00 -.461E-01 0.836E+03   -.346E+00 0.493E-01 -.836E+03   -.172E-01 0.793E-02 -.294E+00   0.254E-03 -.335E-03 0.197E-03
   0.181E+01 0.275E+01 0.836E+03   -.172E+01 -.285E+01 -.835E+03   -.887E-01 0.370E-01 -.274E+00   -.117E-03 -.243E-03 0.317E-03
   -.238E+01 -.141E+01 0.835E+03   0.244E+01 0.142E+01 -.835E+03   -.961E-02 -.330E-02 -.315E+00   -.437E-04 0.210E-03 0.251E-03
   0.369E+01 0.224E-01 0.836E+03   -.373E+01 0.933E-01 -.835E+03   -.320E-01 -.722E-01 -.271E+00   0.146E-03 0.152E-04 0.203E-03
   -.819E+00 -.438E+00 0.839E+03   0.828E+00 0.428E+00 -.839E+03   -.782E-02 0.163E-01 -.436E+00   -.103E-03 0.169E-03 0.214E-03
   0.471E+01 0.286E+01 0.831E+03   -.460E+01 -.280E+01 -.831E+03   -.134E+00 -.686E-01 -.278E+00   -.107E-03 0.182E-03 0.303E-03
   -.167E+01 -.210E+01 0.837E+03   0.156E+01 0.203E+01 -.837E+03   0.840E-01 0.775E-01 -.385E+00   0.149E-03 0.112E-05 0.153E-03
   -.231E+01 -.144E+01 0.836E+03   0.236E+01 0.148E+01 -.835E+03   -.262E-01 0.244E-01 -.323E+00   -.404E-04 0.224E-03 0.312E-03
   -.344E+01 0.165E+01 -.663E+03   0.342E+01 -.173E+01 0.663E+03   0.275E-01 0.822E-01 0.485E+00   -.198E-03 -.174E-03 -.219E-03
   0.302E+01 -.298E+01 -.680E+03   -.261E+01 0.319E+01 0.680E+03   -.419E+00 -.215E+00 0.143E+00   0.580E-04 -.188E-03 -.150E-03
   0.100E+01 0.266E+00 -.676E+03   -.122E+01 -.389E+00 0.676E+03   0.226E+00 0.133E+00 0.353E+00   0.138E-03 -.284E-03 -.274E-03
   -.163E+01 -.567E+00 -.670E+03   0.170E+01 0.606E+00 0.669E+03   -.716E-01 -.353E-01 0.445E+00   -.947E-04 0.305E-03 -.348E-03
   0.219E+01 -.606E+01 -.690E+03   -.220E+01 0.549E+01 0.690E+03   0.282E-02 0.569E+00 -.743E-02   0.183E-04 0.205E-03 -.280E-03
   0.268E-01 -.359E+01 -.663E+03   -.113E+00 0.361E+01 0.663E+03   0.834E-01 -.874E-02 0.504E+00   0.807E-04 0.879E-04 -.272E-03
   -.447E+01 0.494E+01 -.688E+03   0.399E+01 -.467E+01 0.688E+03   0.477E+00 -.270E+00 0.906E-02   -.997E-04 0.971E-04 -.416E-03
   0.438E+01 0.243E+01 -.660E+03   -.445E+01 -.247E+01 0.660E+03   0.628E-01 0.472E-01 0.679E+00   -.755E-04 -.221E-04 -.196E-03
   -.718E+00 0.364E+01 -.679E+03   0.110E+01 -.339E+01 0.679E+03   -.394E+00 -.244E+00 0.143E+00   0.178E-03 -.355E-04 -.335E-03
   -.240E+02 0.737E+01 -.218E+04   0.241E+02 -.745E+01 0.218E+04   -.771E-01 0.862E-01 0.111E+01   0.216E-04 -.607E-05 -.496E-03
   0.489E+02 0.277E+02 -.214E+04   -.495E+02 -.281E+02 0.213E+04   0.650E+00 0.348E+00 0.132E+01   -.643E-04 -.125E-03 -.442E-03
   -.453E+02 0.822E+02 -.208E+04   0.450E+02 -.818E+02 0.209E+04   0.207E+00 -.486E+00 -.336E+01   0.416E-04 -.538E-06 -.549E-03
   0.222E+02 -.679E+01 -.218E+04   -.222E+02 0.688E+01 0.218E+04   0.905E-01 -.939E-01 0.109E+01   -.128E-03 -.150E-03 -.398E-03
   0.493E+02 -.812E+02 -.209E+04   -.489E+02 0.808E+02 0.209E+04   -.341E+00 0.417E+00 -.337E+01   0.899E-04 -.956E-04 -.366E-03
   -.509E+02 -.298E+02 -.213E+04   0.514E+02 0.301E+02 0.213E+04   -.484E+00 -.287E+00 0.130E+01   0.263E-04 -.820E-04 -.438E-03
   -.448E+00 0.418E+00 -.218E+04   0.457E+00 -.402E+00 0.218E+04   -.434E-02 -.126E-01 0.108E+01   0.290E-04 0.203E-03 -.537E-03
   -.563E+01 -.234E+02 -.218E+04   0.556E+01 0.235E+02 0.218E+04   0.655E-01 -.151E+00 0.110E+01   0.816E-04 0.165E-03 -.404E-03
   0.493E+01 0.238E+02 -.218E+04   -.494E+01 -.239E+02 0.218E+04   0.120E-01 0.904E-01 0.109E+01   -.109E-03 0.104E-03 -.496E-03
   0.361E+02 -.625E+02 -.101E+04   -.363E+02 0.630E+02 0.101E+04   0.235E+00 -.421E+00 -.228E+01   0.128E-04 -.235E-04 0.249E-04
   -.360E+02 0.628E+02 -.101E+04   0.363E+02 -.632E+02 0.101E+04   -.244E+00 0.416E+00 -.232E+01   0.897E-06 0.167E-05 0.745E-05
   -.248E+02 -.490E+02 -.258E+03   0.277E+02 0.534E+02 0.260E+03   -.287E+01 -.439E+01 -.209E+01   0.379E-05 -.233E-05 0.903E-05
   0.548E+02 -.314E+01 -.258E+03   -.601E+02 0.288E+01 0.260E+03   0.524E+01 0.271E+00 -.209E+01   0.838E-06 -.635E-05 0.924E-05
   -.550E+02 0.328E+01 -.258E+03   0.602E+02 -.303E+01 0.260E+03   -.525E+01 -.260E+00 -.205E+01   0.172E-05 0.125E-05 0.409E-05
   0.247E+02 0.491E+02 -.258E+03   -.275E+02 -.536E+02 0.260E+03   0.286E+01 0.441E+01 -.207E+01   -.252E-05 0.206E-05 0.521E-05
 -----------------------------------------------------------------------------------------------
   0.160E-01 -.288E-01 0.226E+02   0.107E-12 -.568E-13 0.171E-12   -.797E-01 0.932E-01 -.226E+02   0.121E-04 -.246E-04 -.355E-02
 
 
 POSITION                                       TOTAL-FORCE (eV/Angst)
 -----------------------------------------------------------------------------------
      0.00000      0.00000      7.50000        -0.008633      0.001688     -0.107841
      2.80721      0.00000      7.50000        -0.005317     -0.008218     -0.045854
      5.61443      0.00000      7.50000         0.015675     -0.006741     -0.062803
      1.40361      2.43112      7.50000        -0.003136     -0.015730     -0.053343
      4.21082      2.43112      7.50000         0.007021      0.009047     -0.062966
      7.01803      2.43112      7.50000         0.004077     -0.004218     -0.062358
      2.80721      4.86224      7.50000         0.027455      0.010580     -0.042539
      5.61443      4.86224      7.50000        -0.001149     -0.014468     -0.106083
      8.42164      4.86224      7.50000        -0.009491     -0.002738     -0.052638
      1.40361      0.81037      9.79208        -0.012893     -0.011862     -0.033789
      4.21082      0.81037      9.79208         0.005270      0.009321      0.233709
      7.01803      0.81037      9.79208         0.002457     -0.064146      0.070341
      2.80721      3.24149      9.79208         0.057201      0.001206      0.181667
      5.61443      3.24149      9.79208        -0.063348      0.041966      0.069327
      8.42164      3.24149      9.79208         0.002119      0.005384     -0.008455
      4.21082      5.67261      9.79208        -0.016032     -0.006978     -0.009300
      7.01803      5.67261      9.79208        -0.023519      0.005223     -0.039932
      9.82525      5.67261      9.79208         0.022666      0.056430      0.172083
      8.42195      1.62254     12.04831         0.003350      0.000751     -0.010231
      2.81943      1.63250     12.08134        -0.005791     -0.001284     -0.002745
      5.60398      1.62219     12.07879         0.006239      0.008493     -0.010983
      9.82156      4.05879     12.05528         0.001007      0.002360     -0.002750
      4.20185      4.02972     12.09415         0.001673      0.005259     -0.000607
      7.01156      4.06313     12.04717        -0.000893      0.007227      0.002851
     11.19962      6.49746     12.09139         0.001523      0.003381     -0.000658
      5.59904      6.48204     12.04194         0.001338      0.005461     -0.012833
      8.42994      6.49862     12.08081        -0.006257      0.000184     -0.003428
      8.40250      0.00885     14.35126        -0.002173     -0.002142      0.002062
      6.96760      7.28581     14.32725         0.002779     -0.003867      0.002181
      5.58956      0.03533     14.53042        -0.000590     -0.002137     -0.004495
      9.81411      2.44748     14.35116         0.005125     -0.010716      0.000845
      4.21516      2.42169     14.53771        -0.002985     -0.011724     -0.005376
      7.03300      2.45894     14.32084         0.000909      0.005065      0.006437
     11.20900      4.87138     14.35793         0.006219      0.001741      0.015047
      5.59287      4.87464     14.35260        -0.001855     -0.008961     -0.010478
      8.40788      4.87620     14.35187         0.003105      0.007322     -0.004214
      4.53697      1.86930     16.55408        -0.004953     -0.002347      0.002283
      5.27867      0.58120     16.54879        -0.000856     -0.001720      0.004281
      5.10085      2.71655     16.96553        -0.008607      0.005956     -0.012332
      3.52093      1.80732     16.96482        -0.001690      0.005289     -0.001595
      6.29795      0.64077     16.95217        -0.006851     -0.011741      0.004628
      8.92772      7.02434     16.95671         0.009813     -0.007594      0.002885
 -----------------------------------------------------------------------------------
    total drift:                               -0.063641      0.064395     -0.027829


--------------------------------------------------------------------------------------------------------



  FREE ENERGIE OF THE ION-ELECTRON SYSTEM (eV)
  ---------------------------------------------------
  free  energy   TOTEN  =      -242.44326203 eV

  energy  without entropy=     -240.32015487  energy(sigma->0) =     -241.38170845
 


--------------------------------------------------------------------------------------------------------


    POTLOK:  cpu time    0.0690: real time    0.0688


--------------------------------------------------------------------------------------------------------


 stress matrix after NEB project (eV)
    -36.20116      0.71118      0.05514
      0.71118    -36.82071     -0.18706
      0.05514     -0.18706     -0.36363
  FORCES: max atom, RMS     0.016374    0.007673
  FORCE total and by dimension    0.049729    0.015047
  Stress total and by dimension   51.647931   36.820711
     LOOP+:  cpu time 1813.1234: real time 1826.6858
    4ORBIT:  cpu time    0.0000: real time    0.0000

 total amount of memory used by VASP on root node   292292. kBytes
========================================================================

   base      :      30000. kBytes
   nonlr-proj:       4831. kBytes
   fftplans  :       4497. kBytes
   grid      :       7849. kBytes
   one-center:        171. kBytes
   wavefun   :     244944. kBytes
 
  
  
 General timing and accounting informations for this job:
 ========================================================
  
                  Total CPU time used (sec):     1841.356
                            User time (sec):     1786.082
                          System time (sec):       55.274
                         Elapsed time (sec):     1855.856
  
                   Maximum memory used (kb):      331464.
                   Average memory used (kb):           0.
  
                          Minor page faults:     24911154
                          Major page faults:           12
                 Voluntary context switches:         4097
