 running on   20 total cores
 distrk:  each k-point on   20 cores,    1 groups
 distr:  one band on    4 cores,    5 groups
 using from now: INCAR     
 vasp.5.4.1 24Jun15 (build Oct 10 2016 12:42:00) complex                        
  
 POSCAR found :  3 types and      42 ions
 scaLAPACK will be used
 LDA part: xc-table for Pade appr. of Perdew
 POSCAR found :  3 types and      42 ions
 POSCAR, INCAR and KPOINTS ok, starting setup
 WARNING: small aliasing (wrap around) errors must be expected
 FFT: planning ...
 WAVECAR not read
 entering main loop
       N       E                     dE             d eps       ncg     rms          rms(c)
DAV:   1     0.219905339025E+04    0.21991E+04   -0.14745E+05 24360   0.117E+03
DAV:   2    -0.939324585844E+02   -0.22930E+04   -0.21234E+04 28310   0.269E+02
DAV:   3    -0.254503036461E+03   -0.16057E+03   -0.14560E+03 29360   0.644E+01
DAV:   4    -0.261501311968E+03   -0.69983E+01   -0.67810E+01 31150   0.130E+01    0.628E+01
RMM:   5    -0.248712989208E+03    0.12788E+02   -0.55409E+01 25886   0.147E+01    0.439E+01
RMM:   6    -0.286449514796E+03   -0.37737E+02   -0.73812E+01 25643   0.132E+01    0.550E+01
RMM:   7    -0.244555836604E+03    0.41894E+02   -0.25111E+01 25163   0.851E+00    0.127E+01
RMM:   8    -0.246340183486E+03   -0.17843E+01   -0.16583E+01 25289   0.656E+00    0.184E+01
RMM:   9    -0.249652062172E+03   -0.33119E+01   -0.35239E+00 26089   0.294E+00    0.250E+01
RMM:  10    -0.242748216884E+03    0.69038E+01   -0.12486E+00 25820   0.175E+00    0.526E+00
RMM:  11    -0.242563738214E+03    0.18448E+00   -0.40730E-01 26097   0.101E+00    0.418E+00
RMM:  12    -0.242521806390E+03    0.41932E-01   -0.16245E-01 26385   0.610E-01    0.350E+00
RMM:  13    -0.242483724962E+03    0.38081E-01   -0.87420E-02 25822   0.474E-01    0.233E+00
RMM:  14    -0.242457023546E+03    0.26701E-01   -0.52775E-02 25846   0.380E-01    0.121E+00
RMM:  15    -0.242446465029E+03    0.10559E-01   -0.11653E-02 25838   0.177E-01    0.736E-01
RMM:  16    -0.242441933654E+03    0.45314E-02   -0.37151E-03 25754   0.944E-02    0.298E-01
RMM:  17    -0.242442002037E+03   -0.68383E-04   -0.17509E-03 26017   0.682E-02    0.312E-01
RMM:  18    -0.242441438912E+03    0.56312E-03   -0.94722E-04 25793   0.510E-02    0.251E-01
RMM:  19    -0.242441026649E+03    0.41226E-03   -0.45597E-04 25749   0.332E-02    0.161E-01
RMM:  20    -0.242440945106E+03    0.81543E-04   -0.90041E-04 25457   0.413E-02    0.104E-01
RMM:  21    -0.242441120178E+03   -0.17507E-03   -0.23974E-04 26833   0.213E-02    0.126E-01
RMM:  22    -0.242441385892E+03   -0.26571E-03   -0.15646E-04 25668   0.197E-02    0.735E-02
RMM:  23    -0.242441581656E+03   -0.19576E-03   -0.86462E-05 26028   0.149E-02    0.356E-02
RMM:  24    -0.242441896929E+03   -0.31527E-03   -0.52463E-05 25306   0.105E-02    0.245E-02
RMM:  25    -0.242442136773E+03   -0.23984E-03   -0.22862E-05 25714   0.685E-03    0.167E-02
RMM:  26    -0.242442461014E+03   -0.32424E-03   -0.19646E-05 25389   0.598E-03    0.149E-02
RMM:  27    -0.242442700044E+03   -0.23903E-03   -0.16362E-05 23585   0.493E-03    0.185E-02
RMM:  28    -0.242442814667E+03   -0.11462E-03   -0.60249E-06 19806   0.289E-03    0.173E-02
RMM:  29    -0.242443025903E+03   -0.21124E-03   -0.88186E-06 19691   0.359E-03    0.479E-03
RMM:  30    -0.242443112043E+03   -0.86140E-04   -0.34897E-06 18047   0.219E-03    0.356E-03
RMM:  31    -0.242443207944E+03   -0.95901E-04   -0.39228E-06 17796   0.215E-03    0.268E-03
RMM:  32    -0.242443223548E+03   -0.15604E-04   -0.71057E-07 14038   0.103E-03    0.186E-03
RMM:  33    -0.242443244781E+03   -0.21233E-04   -0.92811E-07 14233   0.106E-03    0.111E-03
RMM:  34    -0.242443251318E+03   -0.65370E-05   -0.34229E-07 10079   0.681E-04    0.733E-04
RMM:  35    -0.242443257626E+03   -0.63073E-05   -0.39836E-07 12547   0.766E-04    0.692E-04
RMM:  36    -0.242443259522E+03   -0.18963E-05   -0.13616E-07  7415   0.494E-04    0.487E-04
RMM:  37    -0.242443261426E+03   -0.19043E-05   -0.14496E-07  8496   0.544E-04    0.274E-04
RMM:  38    -0.242443262032E+03   -0.60575E-06   -0.61158E-08  6133   0.456E-04
   1 F= -.24244326E+03 E0= -.24138171E+03  d E =-.212311E+01
