unknown system                          
           1
     8.421642    0.000000    0.000000
     4.210821    7.293356    0.000000
     0.000000    0.000000   21.876242
   Pt   C    H 
  36   2   4
Direct configuration=     1
   0.00000000  0.00000000  0.34283768
   0.33333333  0.00000000  0.34283768
   0.66666667  0.00000000  0.34283768
   0.00000000  0.33333333  0.34283768
   0.33333333  0.33333333  0.34283768
   0.66666667  0.33333333  0.34283768
   0.00000000  0.66666667  0.34283768
   0.33333333  0.66666667  0.34283768
   0.66666667  0.66666667  0.34283768
   0.11111111  0.11111111  0.44761256
   0.44444444  0.11111111  0.44761256
   0.77777778  0.11111111  0.44761256
   0.11111111  0.44444444  0.44761256
   0.44444444  0.44444444  0.44761256
   0.77777778  0.44444444  0.44761256
   0.11111111  0.77777778  0.44761256
   0.44444444  0.77777778  0.44761256
   0.77777778  0.77777778  0.44761256
   0.88880269  0.22246864  0.55074865
   0.22286731  0.22383398  0.55225837
   0.55421601  0.22242033  0.55214179
   0.88797649  0.55650505  0.55106743
   0.22267469  0.55251921  0.55284426
   0.55401487  0.55710024  0.55069641
   0.88442469  0.89087452  0.55271808
   0.22045978  0.88875937  0.55045762
   0.55546855  0.89103318  0.55223428
   0.99711981  0.00121383  0.65602023
   0.32786159  0.99896524  0.65492262
   0.66129139  0.00484446  0.66420994
   0.99755567  0.33557713  0.65601588
   0.33449545  0.33204052  0.66454342
   0.66653639  0.33714803  0.65462989
   0.99701562  0.66792043  0.65632529
   0.32992381  0.66836691  0.65608148
   0.66407476  0.66858163  0.65604814
   0.41057677  0.25630111  0.75671477
   0.58695348  0.07968935  0.75647312
   0.41944836  0.37246933  0.77552328
   0.29417945  0.24780372  0.77549050
   0.70390050  0.08785725  0.77491244
   0.57853529  0.96311503  0.77512002
