Automatically generated mesh
      54
Reciprocal lattice
    0.08333333333333    0.08333333333333    0.00000000000000            16
    0.00000000000000    0.08333333333333    0.00000000000000            16
   -0.08333333333333    0.00000000000000    0.00000000000000            16
    0.25000000000000    0.08333333333333    0.00000000000000            16
    0.16666666666667    0.25000000000000    0.00000000000000            16
   -0.08333333333333    0.16666666666667    0.00000000000000            16
    0.16666666666667   -0.08333333333333    0.00000000000000            16
   -0.08333333333333   -0.25000000000000    0.00000000000000            16
   -0.25000000000000   -0.16666666666667    0.00000000000000            16
    0.41666666666667    0.08333333333333    0.00000000000000            16
    0.33333333333333    0.41666666666667    0.00000000000000            16
   -0.08333333333333    0.33333333333333    0.00000000000000            16
    0.33333333333333   -0.08333333333333    0.00000000000000            16
   -0.08333333333333   -0.41666666666667    0.00000000000000            16
   -0.41666666666667   -0.33333333333333    0.00000000000000            16
   -0.41666666666667    0.08333333333333    0.00000000000000            16
    0.50000000000000   -0.41666666666667    0.00000000000000            16
   -0.08333333333333    0.50000000000000    0.00000000000000            16
    0.50000000000000   -0.08333333333333    0.00000000000000            16
   -0.08333333333333    0.41666666666667    0.00000000000000            16
    0.41666666666667    0.50000000000000    0.00000000000000            16
   -0.25000000000000    0.08333333333333    0.00000000000000            16
   -0.33333333333333   -0.25000000000000    0.00000000000000            16
   -0.08333333333333   -0.33333333333333    0.00000000000000            16
   -0.33333333333333   -0.08333333333333    0.00000000000000            16
   -0.08333333333333    0.25000000000000    0.00000000000000            16
    0.25000000000000    0.33333333333333    0.00000000000000            16
   -0.08333333333333    0.08333333333333    0.00000000000000            16
   -0.16666666666667   -0.08333333333333    0.00000000000000            16
   -0.08333333333333   -0.16666666666667    0.00000000000000            16
    0.25000000000000    0.25000000000000    0.00000000000000            16
    0.00000000000000    0.25000000000000    0.00000000000000            16
   -0.25000000000000    0.00000000000000    0.00000000000000            16
    0.41666666666667    0.25000000000000    0.00000000000000            16
    0.16666666666667    0.41666666666667    0.00000000000000            16
   -0.25000000000000    0.16666666666667    0.00000000000000            16
    0.16666666666667   -0.25000000000000    0.00000000000000            16
   -0.25000000000000   -0.41666666666667    0.00000000000000            16
   -0.41666666666667   -0.16666666666667    0.00000000000000            16
   -0.41666666666667    0.25000000000000    0.00000000000000            16
    0.33333333333333   -0.41666666666667    0.00000000000000            16
   -0.25000000000000    0.33333333333333    0.00000000000000            16
    0.33333333333333   -0.25000000000000    0.00000000000000            16
   -0.25000000000000    0.41666666666667    0.00000000000000            16
    0.41666666666667   -0.33333333333333    0.00000000000000            16
   -0.25000000000000    0.25000000000000    0.00000000000000            16
    0.50000000000000   -0.25000000000000    0.00000000000000            16
   -0.25000000000000    0.50000000000000    0.00000000000000            16
    0.41666666666667    0.41666666666667    0.00000000000000            16
    0.00000000000000    0.41666666666667    0.00000000000000            16
   -0.41666666666667   -0.00000000000000    0.00000000000000            16
   -0.41666666666667    0.41666666666667    0.00000000000000            16
    0.16666666666667   -0.41666666666667    0.00000000000000            16
   -0.41666666666667    0.16666666666667    0.00000000000000            16
