  43  43   0   0
  0.3124845E+02  0.8421642E-09  0.8421642E-09  0.2187624E-08  0.5000000E-15
  1.000000000000000E-004
  CAR 
 unknown system                          
      8.53059114    -13.37408070  301      1.44604943      1.00000000
    -13.374  0.0000E+00  0.0000E+00
    -13.301  0.0000E+00  0.0000E+00
    -13.228  0.5349E-02  0.3905E-03
    -13.155  0.5750E-02  0.8103E-03
    -13.082  0.1192E-01  0.1681E-02
    -13.009  0.2472E-01  0.3486E-02
    -12.936  0.5115E-01  0.7221E-02
    -12.863  0.1056E+00  0.1493E-01
    -12.790  0.2165E+00  0.3073E-01
    -12.717  0.4385E+00  0.6275E-01
    -12.644  0.8660E+00  0.1260E+00
    -12.571  0.1628E+01  0.2449E+00
    -12.498  0.2797E+01  0.4491E+00
    -12.425  0.4131E+01  0.7507E+00
    -12.352  0.4920E+01  0.1110E+01
    -12.279  0.4556E+01  0.1443E+01
    -12.206  0.3335E+01  0.1686E+01
    -12.133  0.2044E+01  0.1835E+01
    -12.060  0.1120E+01  0.1917E+01
    -11.987  0.5760E+00  0.1959E+01
    -11.914  0.2866E+00  0.1980E+01
    -11.841  0.1403E+00  0.1990E+01
    -11.768  0.6813E-01  0.1995E+01
    -11.695  0.3295E-01  0.1998E+01
    -11.622  0.1590E-01  0.1999E+01
    -11.549  0.0000E+00  0.2000E+01
    -11.476  0.0000E+00  0.2000E+01
    -11.403  0.0000E+00  0.2000E+01
    -11.330  0.0000E+00  0.2000E+01
    -11.257  0.0000E+00  0.2000E+01
    -11.184  0.0000E+00  0.2000E+01
    -11.111  0.0000E+00  0.2000E+01
    -11.038  0.0000E+00  0.2000E+01
    -10.965  0.0000E+00  0.2000E+01
    -10.892  0.0000E+00  0.2000E+01
    -10.819  0.0000E+00  0.2000E+01
    -10.746  0.0000E+00  0.2000E+01
    -10.673  0.0000E+00  0.2000E+01
    -10.599  0.0000E+00  0.2000E+01
    -10.526  0.0000E+00  0.2000E+01
    -10.453  0.0000E+00  0.2000E+01
    -10.380  0.0000E+00  0.2000E+01
    -10.307  0.0000E+00  0.2000E+01
    -10.234  0.0000E+00  0.2000E+01
    -10.161  0.0000E+00  0.2000E+01
    -10.088  0.0000E+00  0.2000E+01
    -10.015  0.0000E+00  0.2000E+01
     -9.942  0.0000E+00  0.2000E+01
     -9.869  0.0000E+00  0.2000E+01
     -9.796  0.0000E+00  0.2000E+01
     -9.723  0.0000E+00  0.2000E+01
     -9.650  0.0000E+00  0.2000E+01
     -9.577  0.0000E+00  0.2000E+01
     -9.504  0.6301E-02  0.2000E+01
     -9.431  0.6773E-02  0.2001E+01
     -9.358  0.1405E-01  0.2002E+01
     -9.285  0.2910E-01  0.2004E+01
     -9.212  0.6021E-01  0.2009E+01
     -9.139  0.1241E+00  0.2018E+01
     -9.066  0.2540E+00  0.2036E+01
     -8.993  0.5123E+00  0.2074E+01
     -8.920  0.1003E+01  0.2147E+01
     -8.847  0.1857E+01  0.2282E+01
     -8.774  0.3101E+01  0.2509E+01
     -8.701  0.4387E+01  0.2829E+01
     -8.628  0.4945E+01  0.3190E+01
     -8.555  0.4329E+01  0.3506E+01
     -8.482  0.3029E+01  0.3727E+01
     -8.409  0.1803E+01  0.3859E+01
     -8.336  0.9769E+00  0.3930E+01
     -8.263  0.5099E+00  0.3968E+01
     -8.190  0.2788E+00  0.3988E+01
     -8.117  0.1895E+00  0.4002E+01
     -8.044  0.1974E+00  0.4016E+01
     -7.971  0.2962E+00  0.4038E+01
     -7.898  0.4968E+00  0.4074E+01
     -7.825  0.7881E+00  0.4133E+01
     -7.752  0.1139E+01  0.4216E+01
     -7.679  0.1461E+01  0.4322E+01
     -7.606  0.1695E+01  0.4446E+01
     -7.533  0.1828E+01  0.4580E+01
     -7.460  0.1903E+01  0.4719E+01
     -7.387  0.1978E+01  0.4863E+01
     -7.314  0.2064E+01  0.5014E+01
     -7.241  0.2102E+01  0.5167E+01
     -7.168  0.2078E+01  0.5319E+01
     -7.095  0.2051E+01  0.5469E+01
     -7.022  0.2079E+01  0.5620E+01
     -6.949  0.2176E+01  0.5779E+01
     -6.876  0.2312E+01  0.5948E+01
     -6.803  0.2406E+01  0.6124E+01
     -6.730  0.2449E+01  0.6303E+01
     -6.657  0.2517E+01  0.6487E+01
     -6.584  0.2700E+01  0.6684E+01
     -6.511  0.3049E+01  0.6907E+01
     -6.438  0.3559E+01  0.7167E+01
     -6.365  0.4088E+01  0.7465E+01
     -6.292  0.4461E+01  0.7791E+01
     -6.219  0.4616E+01  0.8128E+01
     -6.146  0.4662E+01  0.8468E+01
     -6.073  0.4731E+01  0.8814E+01
     -6.000  0.4844E+01  0.9168E+01
     -5.926  0.5005E+01  0.9533E+01
     -5.853  0.5280E+01  0.9919E+01
     -5.780  0.5676E+01  0.1033E+02
     -5.707  0.6073E+01  0.1078E+02
     -5.634  0.6417E+01  0.1125E+02
     -5.561  0.6812E+01  0.1174E+02
     -5.488  0.7420E+01  0.1229E+02
     -5.415  0.8434E+01  0.1290E+02
     -5.342  0.1008E+02  0.1364E+02
     -5.269  0.1248E+02  0.1455E+02
     -5.196  0.1538E+02  0.1567E+02
     -5.123  0.1830E+02  0.1701E+02
     -5.050  0.2103E+02  0.1854E+02
     -4.977  0.2373E+02  0.2028E+02
     -4.904  0.2672E+02  0.2223E+02
     -4.831  0.3004E+02  0.2442E+02
     -4.758  0.3312E+02  0.2684E+02
     -4.685  0.3507E+02  0.2940E+02
     -4.612  0.3556E+02  0.3200E+02
     -4.539  0.3558E+02  0.3459E+02
     -4.466  0.3655E+02  0.3726E+02
     -4.393  0.3901E+02  0.4011E+02
     -4.320  0.4267E+02  0.4323E+02
     -4.247  0.4685E+02  0.4665E+02
     -4.174  0.5062E+02  0.5035E+02
     -4.101  0.5302E+02  0.5422E+02
     -4.028  0.5369E+02  0.5814E+02
     -3.955  0.5297E+02  0.6201E+02
     -3.882  0.5153E+02  0.6577E+02
     -3.809  0.4968E+02  0.6940E+02
     -3.736  0.4717E+02  0.7285E+02
     -3.663  0.4390E+02  0.7605E+02
     -3.590  0.4039E+02  0.7900E+02
     -3.517  0.3752E+02  0.8174E+02
     -3.444  0.3626E+02  0.8439E+02
     -3.371  0.3737E+02  0.8712E+02
     -3.298  0.4072E+02  0.9010E+02
     -3.225  0.4488E+02  0.9338E+02
     -3.152  0.4806E+02  0.9689E+02
     -3.079  0.4944E+02  0.1005E+03
     -3.006  0.4958E+02  0.1041E+03
     -2.933  0.4956E+02  0.1077E+03
     -2.860  0.4966E+02  0.1114E+03
     -2.787  0.4930E+02  0.1150E+03
     -2.714  0.4802E+02  0.1185E+03
     -2.641  0.4627E+02  0.1219E+03
     -2.568  0.4515E+02  0.1252E+03
     -2.495  0.4576E+02  0.1285E+03
     -2.422  0.4861E+02  0.1321E+03
     -2.349  0.5289E+02  0.1359E+03
     -2.276  0.5743E+02  0.1401E+03
     -2.203  0.6166E+02  0.1446E+03
     -2.130  0.6525E+02  0.1494E+03
     -2.057  0.6772E+02  0.1543E+03
     -1.984  0.6921E+02  0.1594E+03
     -1.911  0.7068E+02  0.1645E+03
     -1.838  0.7277E+02  0.1699E+03
     -1.765  0.7514E+02  0.1753E+03
     -1.692  0.7696E+02  0.1810E+03
     -1.619  0.7799E+02  0.1867E+03
     -1.546  0.7849E+02  0.1924E+03
     -1.473  0.7850E+02  0.1981E+03
     -1.400  0.7776E+02  0.2038E+03
     -1.327  0.7560E+02  0.2093E+03
     -1.253  0.7140E+02  0.2145E+03
     -1.180  0.6555E+02  0.2193E+03
     -1.107  0.5938E+02  0.2237E+03
     -1.034  0.5421E+02  0.2276E+03
     -0.961  0.5067E+02  0.2313E+03
     -0.888  0.4903E+02  0.2349E+03
     -0.815  0.4947E+02  0.2385E+03
     -0.742  0.5207E+02  0.2423E+03
     -0.669  0.5626E+02  0.2465E+03
     -0.596  0.6026E+02  0.2509E+03
     -0.523  0.6179E+02  0.2554E+03
     -0.450  0.6004E+02  0.2598E+03
     -0.377  0.5636E+02  0.2639E+03
     -0.304  0.5296E+02  0.2677E+03
     -0.231  0.5117E+02  0.2715E+03
     -0.158  0.5100E+02  0.2752E+03
     -0.085  0.5189E+02  0.2790E+03
     -0.012  0.5344E+02  0.2829E+03
      0.061  0.5562E+02  0.2870E+03
      0.134  0.5846E+02  0.2912E+03
      0.207  0.6159E+02  0.2957E+03
      0.280  0.6426E+02  0.3004E+03
      0.353  0.6558E+02  0.3052E+03
      0.426  0.6487E+02  0.3100E+03
      0.499  0.6227E+02  0.3145E+03
      0.572  0.5868E+02  0.3188E+03
      0.645  0.5549E+02  0.3228E+03
      0.718  0.5388E+02  0.3268E+03
      0.791  0.5401E+02  0.3307E+03
      0.864  0.5505E+02  0.3347E+03
      0.937  0.5625E+02  0.3389E+03
      1.010  0.5796E+02  0.3431E+03
      1.083  0.6112E+02  0.3476E+03
      1.156  0.6567E+02  0.3524E+03
      1.229  0.7007E+02  0.3575E+03
      1.302  0.7259E+02  0.3628E+03
      1.375  0.7241E+02  0.3681E+03
      1.448  0.6947E+02  0.3731E+03
      1.521  0.6414E+02  0.3778E+03
      1.594  0.5737E+02  0.3820E+03
      1.667  0.5021E+02  0.3857E+03
      1.740  0.4285E+02  0.3888E+03
      1.813  0.3528E+02  0.3914E+03
      1.886  0.2828E+02  0.3935E+03
      1.959  0.2277E+02  0.3951E+03
      2.032  0.1889E+02  0.3965E+03
      2.105  0.1627E+02  0.3977E+03
      2.178  0.1456E+02  0.3988E+03
      2.251  0.1344E+02  0.3997E+03
      2.324  0.1265E+02  0.4007E+03
      2.397  0.1217E+02  0.4016E+03
      2.470  0.1200E+02  0.4024E+03
      2.543  0.1188E+02  0.4033E+03
      2.616  0.1155E+02  0.4042E+03
      2.689  0.1106E+02  0.4050E+03
      2.762  0.1067E+02  0.4057E+03
      2.835  0.1062E+02  0.4065E+03
      2.908  0.1095E+02  0.4073E+03
      2.981  0.1143E+02  0.4082E+03
      3.054  0.1183E+02  0.4090E+03
      3.127  0.1209E+02  0.4099E+03
      3.200  0.1223E+02  0.4108E+03
      3.273  0.1225E+02  0.4117E+03
      3.346  0.1202E+02  0.4126E+03
      3.420  0.1157E+02  0.4134E+03
      3.493  0.1122E+02  0.4142E+03
      3.566  0.1117E+02  0.4150E+03
      3.639  0.1134E+02  0.4159E+03
      3.712  0.1164E+02  0.4167E+03
      3.785  0.1200E+02  0.4176E+03
      3.858  0.1217E+02  0.4185E+03
      3.931  0.1191E+02  0.4194E+03
      4.004  0.1137E+02  0.4202E+03
      4.077  0.1089E+02  0.4210E+03
      4.150  0.1076E+02  0.4218E+03
      4.223  0.1111E+02  0.4226E+03
      4.296  0.1188E+02  0.4235E+03
      4.369  0.1265E+02  0.4244E+03
      4.442  0.1281E+02  0.4253E+03
      4.515  0.1220E+02  0.4262E+03
      4.588  0.1130E+02  0.4270E+03
      4.661  0.1084E+02  0.4278E+03
      4.734  0.1109E+02  0.4286E+03
      4.807  0.1160E+02  0.4295E+03
      4.880  0.1166E+02  0.4303E+03
      4.953  0.1102E+02  0.4311E+03
      5.026  0.1012E+02  0.4319E+03
      5.099  0.9415E+01  0.4326E+03
      5.172  0.9075E+01  0.4332E+03
      5.245  0.9142E+01  0.4339E+03
      5.318  0.9591E+01  0.4346E+03
      5.391  0.1029E+02  0.4353E+03
      5.464  0.1103E+02  0.4362E+03
      5.537  0.1171E+02  0.4370E+03
      5.610  0.1226E+02  0.4379E+03
      5.683  0.1249E+02  0.4388E+03
      5.756  0.1211E+02  0.4397E+03
      5.829  0.1104E+02  0.4405E+03
      5.902  0.9622E+01  0.4412E+03
      5.975  0.8404E+01  0.4418E+03
      6.048  0.7689E+01  0.4424E+03
      6.121  0.7441E+01  0.4429E+03
      6.194  0.7518E+01  0.4435E+03
      6.267  0.7813E+01  0.4441E+03
      6.340  0.8089E+01  0.4446E+03
      6.413  0.8108E+01  0.4452E+03
      6.486  0.7900E+01  0.4458E+03
      6.559  0.7670E+01  0.4464E+03
      6.632  0.7538E+01  0.4469E+03
      6.705  0.7469E+01  0.4475E+03
      6.778  0.7288E+01  0.4480E+03
      6.851  0.6802E+01  0.4485E+03
      6.924  0.5925E+01  0.4489E+03
      6.997  0.4752E+01  0.4493E+03
      7.070  0.3510E+01  0.4495E+03
      7.143  0.2409E+01  0.4497E+03
      7.216  0.1542E+01  0.4498E+03
      7.289  0.9257E+00  0.4499E+03
      7.362  0.5366E+00  0.4499E+03
      7.435  0.3209E+00  0.4500E+03
      7.508  0.2133E+00  0.4500E+03
      7.581  0.1522E+00  0.4500E+03
      7.654  0.1047E+00  0.4500E+03
      7.727  0.6316E-01  0.4500E+03
      7.800  0.3473E-01  0.4500E+03
      7.873  0.1749E-01  0.4500E+03
      7.946  0.8447E-02  0.4500E+03
      8.019  0.4014E-02  0.4500E+03
      8.092  0.1957E-02  0.4500E+03
      8.166  0.9485E-03  0.4500E+03
      8.239  0.4583E-03  0.4500E+03
      8.312  0.2211E-03  0.4500E+03
      8.385  0.0000E+00  0.4500E+03
      8.458  0.0000E+00  0.4500E+03
      8.531  0.0000E+00  0.4500E+03
