   43   43    1    1
  0.3124845E+02  0.8421642E-09  0.8421642E-09  0.2187624E-08  0.5000000E-15
  1.000000000000000E-004
  CAR 
 unknown system                          
    373     54    225
 
  0.8333333E-01  0.8333333E-01  0.0000000E+00  0.1851852E-01
    1      -12.374076   1.000000
    2       -8.667375   1.000000
    3       -7.796617   1.000000
    4       -6.479317   1.000000
    5       -5.510739   1.000000
    6       -5.393715   1.000000
    7       -5.386469   1.000000
    8       -5.365819   1.000000
    9       -5.288610   1.000000
   10       -5.236180   1.000000
   11       -5.226996   1.000000
   12       -5.195308   1.000000
   13       -4.763823   1.000000
   14       -4.750754   1.000000
   15       -4.738498   1.000000
   16       -4.725785   1.000000
   17       -4.721277   1.000000
   18       -4.708933   1.000000
   19       -4.690291   1.000000
   20       -4.284185   1.000000
   21       -4.259328   1.000000
   22       -4.236381   1.000000
   23       -4.220505   1.000000
   24       -4.205952   1.000000
   25       -4.201410   1.000000
   26       -4.142471   1.000000
   27       -4.091860   1.000000
   28       -4.049848   1.000000
   29       -4.008167   1.000000
   30       -3.931118   1.000000
   31       -3.908905   1.000000
   32       -3.863795   1.000000
   33       -3.847343   1.000000
   34       -3.835244   1.000000
   35       -3.826453   1.000000
   36       -3.793860   1.000000
   37       -3.781152   1.000000
   38       -3.766014   1.000000
   39       -3.753614   1.000000
   40       -3.693187   1.000000
   41       -3.686131   1.000000
   42       -3.660699   1.000000
   43       -3.602566   1.000000
   44       -3.583111   1.000000
   45       -3.239856   1.000000
   46       -3.156087   1.000000
   47       -3.154831   1.000000
   48       -3.128613   1.000000
   49       -3.120196   1.000000
   50       -3.090139   1.000000
   51       -3.077233   1.000000
   52       -3.065339   1.000000
   53       -2.980752   1.000000
   54       -2.970998   1.000000
   55       -2.915562   1.000000
   56       -2.878402   1.000000
   57       -2.861205   1.000000
   58       -2.808793   1.000000
   59       -2.790241   1.000000
   60       -2.383706   1.000000
   61       -2.371742   1.000000
   62       -2.282005   1.000000
   63       -2.274770   1.000000
   64       -2.260770   1.000000
   65       -2.232475   1.000000
   66       -2.196093   1.000000
   67       -2.190669   1.000000
   68       -2.170882   1.000000
   69       -2.164319   1.000000
   70       -2.146777   1.000000
   71       -2.116560   1.000000
   72       -2.101649   1.000000
   73       -2.084836   1.000000
   74       -2.048121   1.000000
   75       -2.039099   1.000000
   76       -2.033206   1.000000
   77       -2.007682   1.000000
   78       -1.954473   1.000000
   79       -1.946301   1.000000
   80       -1.932053   1.000000
   81       -1.911162   1.000000
   82       -1.904208   1.000000
   83       -1.858888   1.000000
   84       -1.834021   1.000000
   85       -1.789718   1.000000
   86       -1.767543   1.000000
   87       -1.756399   1.000000
   88       -1.732009   1.000000
   89       -1.649617   1.000000
   90       -1.622407   1.000000
   91       -1.609711   1.000000
   92       -1.577500   1.000000
   93       -1.561809   1.000000
   94       -1.531921   1.000000
   95       -1.530161   1.000000
   96       -1.502396   1.000000
   97       -1.487849   1.000000
   98       -1.471121   1.000000
   99       -1.447651   1.000000
  100       -1.415383   1.000000
  101       -1.388772   1.000000
  102       -1.380663   1.000000
  103       -1.356519   1.000000
  104       -1.273993   1.000000
  105       -1.257813   1.000000
  106       -1.238592   1.000000
  107       -1.236816   1.000000
  108       -1.223012   1.000000
  109       -1.190685   1.000000
  110       -1.187037   1.000000
  111       -1.157496   1.000000
  112       -1.072555   1.000000
  113       -1.058813   1.000000
  114       -0.921440   1.000000
  115       -0.862699   1.000000
  116       -0.822430   1.000000
  117       -0.803916   1.000000
  118       -0.741516   1.000000
  119       -0.704611   1.000000
  120       -0.644547   1.000000
  121       -0.633503   1.000000
  122       -0.623353   1.000000
  123       -0.604530   1.000000
  124       -0.597761   1.000000
  125       -0.565799   1.000000
  126       -0.541987   1.000000
  127       -0.472405   1.000000
  128       -0.465081   1.000000
  129       -0.394825   1.000000
  130       -0.391262   1.000000
  131       -0.213803   1.000000
  132       -0.193174   1.000000
  133       -0.175177   1.000000
  134       -0.101401   1.000000
  135       -0.091580   1.000000
  136       -0.085322   1.000000
  137       -0.063472   1.000000
  138       -0.056583   1.000000
  139       -0.042510   1.000000
  140       -0.027004   1.000000
  141        0.057165   0.999999
  142        0.067440   0.999999
  143        0.097166   0.999999
  144        0.122636   0.999998
  145        0.196239   0.999996
  146        0.221818   0.999995
  147        0.267703   0.999992
  148        0.271731   0.999992
  149        0.282233   0.999991
  150        0.297102   0.999990
  151        0.344322   0.999984
  152        0.389994   0.999974
  153        0.488835   0.999930
  154        0.520458   0.999904
  155        0.524895   0.999900
  156        0.540104   0.999884
  157        0.567675   0.999847
  158        0.576594   0.999833
  159        0.607161   0.999773
  160        0.647596   0.999659
  161        0.668404   0.999581
  162        0.689769   0.999481
  163        0.720643   0.999293
  164        0.724359   0.999266
  165        0.739316   0.999148
  166        0.784644   0.998660
  167        0.802989   0.998391
  168        0.832029   0.997850
  169        0.836449   0.997753
  170        0.846831   0.997508
  171        0.856711   0.997250
  172        0.875414   0.996686
  173        0.878993   0.996566
  174        0.902476   0.995661
  175        0.924963   0.994573
  176        0.955922   0.992618
  177        0.968130   0.991667
  178        0.976365   0.990958
  179        0.980457   0.990584
  180        1.021777   0.985835
  181        1.054735   0.980414
  182        1.074914   0.976139
  183        1.131523   0.958722
  184        1.142746   0.954044
  185        1.145163   0.952973
  186        1.164032   0.943756
  187        1.178056   0.935832
  188        1.202200   0.919716
  189        1.214760   0.909939
  190        1.234507   0.892394
  191        1.240386   0.886617
  192        1.248935   0.877734
  193        1.269841   0.853471
  194        1.275941   0.845676
  195        1.290865   0.825181
  196        1.414479   0.578276
  197        1.483601   0.407210
  198        1.499191   0.370186
  199        1.527785   0.306325
  200        1.535467   0.290249
  201        1.547900   0.265318
  202        1.577345   0.211992
  203        1.844017   0.018349
  204        2.161281   0.000782
  205        2.266496   0.000273
  206        2.291985   0.000212
  207        2.449288   0.000044
  208        2.517100   0.000022
  209        2.579174   0.000012
  210        3.667740   0.000000
  211        4.410541   0.000000
  212        4.511086   0.000000
  213        4.672223   0.000000
  214        4.844079   0.000000
  215        4.960129   0.000000
  216        5.556547   0.000000
  217        5.752908   0.000000
  218        5.773848   0.000000
  219        6.174371   0.000000
  220        6.245675   0.000000
  221        6.250791   0.000000
  222        6.617690   0.000000
  223        6.713059   0.000000
  224        6.757457   0.000000
  225        7.050462   0.000000
 
  0.0000000E+00  0.8333333E-01  0.0000000E+00  0.1851852E-01
    1      -12.374081   1.000000
    2       -8.667296   1.000000
    3       -7.796642   1.000000
    4       -6.479398   1.000000
    5       -5.507298   1.000000
    6       -5.394192   1.000000
    7       -5.390362   1.000000
    8       -5.365518   1.000000
    9       -5.288589   1.000000
   10       -5.236103   1.000000
   11       -5.230353   1.000000
   12       -5.192050   1.000000
   13       -4.773813   1.000000
   14       -4.753215   1.000000
   15       -4.729318   1.000000
   16       -4.727066   1.000000
   17       -4.715797   1.000000
   18       -4.708073   1.000000
   19       -4.690566   1.000000
   20       -4.288526   1.000000
   21       -4.252179   1.000000
   22       -4.235700   1.000000
   23       -4.225788   1.000000
   24       -4.204805   1.000000
   25       -4.201187   1.000000
   26       -4.142779   1.000000
   27       -4.091585   1.000000
   28       -4.052880   1.000000
   29       -4.002874   1.000000
   30       -3.933888   1.000000
   31       -3.911462   1.000000
   32       -3.863386   1.000000
   33       -3.851959   1.000000
   34       -3.833152   1.000000
   35       -3.811556   1.000000
   36       -3.794646   1.000000
   37       -3.780906   1.000000
   38       -3.763007   1.000000
   39       -3.758635   1.000000
   40       -3.699286   1.000000
   41       -3.684586   1.000000
   42       -3.663120   1.000000
   43       -3.603818   1.000000
   44       -3.583360   1.000000
   45       -3.235636   1.000000
   46       -3.157489   1.000000
   47       -3.151295   1.000000
   48       -3.134997   1.000000
   49       -3.116780   1.000000
   50       -3.108097   1.000000
   51       -3.082313   1.000000
   52       -3.035332   1.000000
   53       -3.005194   1.000000
   54       -2.947399   1.000000
   55       -2.918731   1.000000
   56       -2.877066   1.000000
   57       -2.869441   1.000000
   58       -2.807316   1.000000
   59       -2.790666   1.000000
   60       -2.393516   1.000000
   61       -2.358612   1.000000
   62       -2.288263   1.000000
   63       -2.274157   1.000000
   64       -2.267721   1.000000
   65       -2.216869   1.000000
   66       -2.201012   1.000000
   67       -2.192090   1.000000
   68       -2.176596   1.000000
   69       -2.169405   1.000000
   70       -2.139994   1.000000
   71       -2.113401   1.000000
   72       -2.102143   1.000000
   73       -2.089387   1.000000
   74       -2.048432   1.000000
   75       -2.041491   1.000000
   76       -2.032406   1.000000
   77       -2.007586   1.000000
   78       -1.951485   1.000000
   79       -1.948894   1.000000
   80       -1.932119   1.000000
   81       -1.915578   1.000000
   82       -1.898569   1.000000
   83       -1.851018   1.000000
   84       -1.826066   1.000000
   85       -1.787143   1.000000
   86       -1.773936   1.000000
   87       -1.759254   1.000000
   88       -1.735078   1.000000
   89       -1.644067   1.000000
   90       -1.625390   1.000000
   91       -1.614725   1.000000
   92       -1.575462   1.000000
   93       -1.563689   1.000000
   94       -1.531849   1.000000
   95       -1.524782   1.000000
   96       -1.504793   1.000000
   97       -1.487615   1.000000
   98       -1.471621   1.000000
   99       -1.442817   1.000000
  100       -1.414326   1.000000
  101       -1.388103   1.000000
  102       -1.379975   1.000000
  103       -1.360585   1.000000
  104       -1.287300   1.000000
  105       -1.254649   1.000000
  106       -1.238367   1.000000
  107       -1.236605   1.000000
  108       -1.220964   1.000000
  109       -1.191360   1.000000
  110       -1.176037   1.000000
  111       -1.158484   1.000000
  112       -1.091212   1.000000
  113       -1.051062   1.000000
  114       -0.918115   1.000000
  115       -0.860225   1.000000
  116       -0.820168   1.000000
  117       -0.808122   1.000000
  118       -0.749906   1.000000
  119       -0.704883   1.000000
  120       -0.645858   1.000000
  121       -0.633104   1.000000
  122       -0.624156   1.000000
  123       -0.607329   1.000000
  124       -0.580720   1.000000
  125       -0.565891   1.000000
  126       -0.540189   1.000000
  127       -0.465624   1.000000
  128       -0.457056   1.000000
  129       -0.408300   1.000000
  130       -0.392091   1.000000
  131       -0.212326   1.000000
  132       -0.194479   1.000000
  133       -0.176123   1.000000
  134       -0.104741   1.000000
  135       -0.091740   1.000000
  136       -0.081191   1.000000
  137       -0.062497   1.000000
  138       -0.059009   1.000000
  139       -0.045353   1.000000
  140       -0.031629   1.000000
  141        0.059363   0.999999
  142        0.063852   0.999999
  143        0.102849   0.999999
  144        0.123680   0.999998
  145        0.195833   0.999996
  146        0.223820   0.999995
  147        0.267349   0.999992
  148        0.272251   0.999992
  149        0.284392   0.999991
  150        0.296590   0.999990
  151        0.343275   0.999984
  152        0.388202   0.999975
  153        0.487272   0.999931
  154        0.519164   0.999906
  155        0.528434   0.999897
  156        0.536740   0.999888
  157        0.567358   0.999847
  158        0.576649   0.999832
  159        0.613475   0.999758
  160        0.647651   0.999659
  161        0.677734   0.999540
  162        0.688595   0.999487
  163        0.717840   0.999313
  164        0.725977   0.999255
  165        0.737662   0.999162
  166        0.783253   0.998679
  167        0.797186   0.998482
  168        0.833298   0.997823
  169        0.836830   0.997745
  170        0.846123   0.997526
  171        0.856297   0.997261
  172        0.873425   0.996751
  173        0.877292   0.996624
  174        0.901832   0.995689
  175        0.921220   0.994771
  176        0.957696   0.992487
  177        0.965995   0.991842
  178        0.978928   0.990726
  179        0.984122   0.990236
  180        1.021252   0.985908
  181        1.054599   0.980440
  182        1.073524   0.976460
  183        1.129738   0.959423
  184        1.143350   0.953779
  185        1.145441   0.952848
  186        1.163813   0.943872
  187        1.182303   0.933234
  188        1.202593   0.919426
  189        1.213193   0.911215
  190        1.234584   0.892319
  191        1.240297   0.886706
  192        1.248475   0.878227
  193        1.270650   0.852456
  194        1.274035   0.848147
  195        1.301717   0.808970
  196        1.405646   0.599656
  197        1.485512   0.402603
  198        1.497247   0.374731
  199        1.529984   0.301673
  200        1.535182   0.290836
  201        1.545125   0.270764
  202        1.575651   0.214836
  203        1.847622   0.017711
  204        2.154712   0.000836
  205        2.258739   0.000295
  206        2.303366   0.000189
  207        2.450684   0.000043
  208        2.514410   0.000023
  209        2.581813   0.000012
  210        3.668183   0.000000
  211        4.416397   0.000000
  212        4.507512   0.000000
  213        4.668073   0.000000
  214        4.840709   0.000000
  215        4.963576   0.000000
  216        5.558638   0.000000
  217        5.753101   0.000000
  218        5.774768   0.000000
  219        6.165824   0.000000
  220        6.243391   0.000000
  221        6.259499   0.000000
  222        6.615503   0.000000
  223        6.638454   0.000000
  224        6.751909   0.000000
  225        6.842190   0.000000
 
 -0.8333333E-01  0.0000000E+00  0.0000000E+00  0.1851852E-01
    1      -12.374075   1.000000
    2       -8.667331   1.000000
    3       -7.796642   1.000000
    4       -6.479369   1.000000
    5       -5.513183   1.000000
    6       -5.392116   1.000000
    7       -5.386028   1.000000
    8       -5.365286   1.000000
    9       -5.288616   1.000000
   10       -5.233051   1.000000
   11       -5.226416   1.000000
   12       -5.199255   1.000000
   13       -4.766338   1.000000
   14       -4.750114   1.000000
   15       -4.736020   1.000000
   16       -4.728093   1.000000
   17       -4.717534   1.000000
   18       -4.709510   1.000000
   19       -4.691670   1.000000
   20       -4.285684   1.000000
   21       -4.254259   1.000000
   22       -4.234988   1.000000
   23       -4.224953   1.000000
   24       -4.207456   1.000000
   25       -4.200206   1.000000
   26       -4.137220   1.000000
   27       -4.103108   1.000000
   28       -4.050747   1.000000
   29       -4.001345   1.000000
   30       -3.932607   1.000000
   31       -3.909297   1.000000
   32       -3.865781   1.000000
   33       -3.857214   1.000000
   34       -3.834104   1.000000
   35       -3.811734   1.000000
   36       -3.790967   1.000000
   37       -3.779760   1.000000
   38       -3.762875   1.000000
   39       -3.753891   1.000000
   40       -3.700591   1.000000
   41       -3.682031   1.000000
   42       -3.663416   1.000000
   43       -3.608433   1.000000
   44       -3.581865   1.000000
   45       -3.238518   1.000000
   46       -3.159222   1.000000
   47       -3.153400   1.000000
   48       -3.130719   1.000000
   49       -3.118114   1.000000
   50       -3.099390   1.000000
   51       -3.082121   1.000000
   52       -3.037565   1.000000
   53       -2.999523   1.000000
   54       -2.960969   1.000000
   55       -2.915193   1.000000
   56       -2.877087   1.000000
   57       -2.866517   1.000000
   58       -2.808499   1.000000
   59       -2.790110   1.000000
   60       -2.388122   1.000000
   61       -2.362597   1.000000
   62       -2.279995   1.000000
   63       -2.273227   1.000000
   64       -2.262941   1.000000
   65       -2.228611   1.000000
   66       -2.198819   1.000000
   67       -2.192418   1.000000
   68       -2.175895   1.000000
   69       -2.170348   1.000000
   70       -2.139023   1.000000
   71       -2.111088   1.000000
   72       -2.103208   1.000000
   73       -2.093345   1.000000
   74       -2.047662   1.000000
   75       -2.041591   1.000000
   76       -2.026790   1.000000
   77       -2.008167   1.000000
   78       -1.954917   1.000000
   79       -1.945822   1.000000
   80       -1.927416   1.000000
   81       -1.912720   1.000000
   82       -1.904310   1.000000
   83       -1.861453   1.000000
   84       -1.840825   1.000000
   85       -1.788560   1.000000
   86       -1.764900   1.000000
   87       -1.753988   1.000000
   88       -1.729482   1.000000
   89       -1.653665   1.000000
   90       -1.619156   1.000000
   91       -1.608820   1.000000
   92       -1.575882   1.000000
   93       -1.562102   1.000000
   94       -1.539523   1.000000
   95       -1.525120   1.000000
   96       -1.510847   1.000000
   97       -1.483622   1.000000
   98       -1.472188   1.000000
   99       -1.445192   1.000000
  100       -1.415459   1.000000
  101       -1.387980   1.000000
  102       -1.379261   1.000000
  103       -1.357145   1.000000
  104       -1.277191   1.000000
  105       -1.258970   1.000000
  106       -1.238094   1.000000
  107       -1.236932   1.000000
  108       -1.217115   1.000000
  109       -1.192301   1.000000
  110       -1.181518   1.000000
  111       -1.165289   1.000000
  112       -1.093969   1.000000
  113       -1.045833   1.000000
  114       -0.913321   1.000000
  115       -0.860685   1.000000
  116       -0.822629   1.000000
  117       -0.804427   1.000000
  118       -0.745390   1.000000
  119       -0.704524   1.000000
  120       -0.644237   1.000000
  121       -0.632902   1.000000
  122       -0.623054   1.000000
  123       -0.606006   1.000000
  124       -0.581916   1.000000
  125       -0.566408   1.000000
  126       -0.543718   1.000000
  127       -0.467493   1.000000
  128       -0.464766   1.000000
  129       -0.406608   1.000000
  130       -0.391766   1.000000
  131       -0.212835   1.000000
  132       -0.194380   1.000000
  133       -0.178492   1.000000
  134       -0.105665   1.000000
  135       -0.088718   1.000000
  136       -0.087106   1.000000
  137       -0.065190   1.000000
  138       -0.053942   1.000000
  139       -0.043233   1.000000
  140       -0.029537   1.000000
  141        0.056046   0.999999
  142        0.063867   0.999999
  143        0.099811   0.999999
  144        0.121305   0.999998
  145        0.197347   0.999996
  146        0.222568   0.999995
  147        0.265903   0.999993
  148        0.272090   0.999992
  149        0.285977   0.999991
  150        0.297146   0.999990
  151        0.345045   0.999983
  152        0.390668   0.999974
  153        0.491823   0.999928
  154        0.520696   0.999904
  155        0.524364   0.999901
  156        0.539157   0.999885
  157        0.567614   0.999847
  158        0.576047   0.999833
  159        0.611217   0.999763
  160        0.646896   0.999662
  161        0.675317   0.999551
  162        0.687928   0.999490
  163        0.718572   0.999308
  164        0.724873   0.999263
  165        0.740973   0.999134
  166        0.785070   0.998655
  167        0.796546   0.998491
  168        0.831512   0.997861
  169        0.834255   0.997802
  170        0.846367   0.997520
  171        0.855982   0.997270
  172        0.874676   0.996711
  173        0.879921   0.996534
  174        0.904036   0.995593
  175        0.923704   0.994640
  176        0.953819   0.992770
  177        0.966337   0.991814
  178        0.979627   0.990662
  179        0.984883   0.990162
  180        1.022069   0.985794
  181        1.055644   0.980238
  182        1.074923   0.976137
  183        1.132475   0.958343
  184        1.143386   0.953763
  185        1.145556   0.952796
  186        1.162108   0.944769
  187        1.175506   0.937346
  188        1.201451   0.920267
  189        1.209742   0.913968
  190        1.233472   0.893383
  191        1.237622   0.889365
  192        1.249281   0.877362
  193        1.274614   0.847400
  194        1.276834   0.844507
  195        1.292111   0.823375
  196        1.418483   0.568484
  197        1.480816   0.413949
  198        1.500345   0.367501
  199        1.527613   0.306691
  200        1.535910   0.289338
  201        1.548403   0.264340
  202        1.578286   0.210424
  203        1.845613   0.018063
  204        2.159077   0.000800
  205        2.264681   0.000278
  206        2.297896   0.000200
  207        2.446616   0.000045
  208        2.512306   0.000023
  209        2.583008   0.000012
  210        3.667804   0.000000
  211        4.413436   0.000000
  212        4.510755   0.000000
  213        4.672838   0.000000
  214        4.836170   0.000000
  215        4.965370   0.000000
  216        5.556138   0.000000
  217        5.752163   0.000000
  218        5.774486   0.000000
  219        6.169044   0.000000
  220        6.246638   0.000000
  221        6.259248   0.000000
  222        6.608453   0.000000
  223        6.739890   0.000000
  224        6.786106   0.000000
  225        6.906610   0.000000
 
  0.2500000E+00  0.8333333E-01  0.0000000E+00  0.1851852E-01
    1      -12.373995   1.000000
    2       -8.667041   1.000000
    3       -7.640569   1.000000
    4       -6.326110   1.000000
    5       -5.877429   1.000000
    6       -5.682224   1.000000
    7       -5.241476   1.000000
    8       -5.209708   1.000000
    9       -5.143694   1.000000
   10       -5.095785   1.000000
   11       -5.078337   1.000000
   12       -5.052128   1.000000
   13       -4.894629   1.000000
   14       -4.796840   1.000000
   15       -4.775479   1.000000
   16       -4.719354   1.000000
   17       -4.689448   1.000000
   18       -4.598289   1.000000
   19       -4.581017   1.000000
   20       -4.325210   1.000000
   21       -4.271347   1.000000
   22       -4.219444   1.000000
   23       -4.178189   1.000000
   24       -4.150268   1.000000
   25       -4.127535   1.000000
   26       -4.117773   1.000000
   27       -4.090954   1.000000
   28       -4.070814   1.000000
   29       -4.041610   1.000000
   30       -3.990627   1.000000
   31       -3.976299   1.000000
   32       -3.943228   1.000000
   33       -3.924828   1.000000
   34       -3.882081   1.000000
   35       -3.846861   1.000000
   36       -3.832249   1.000000
   37       -3.788030   1.000000
   38       -3.726698   1.000000
   39       -3.619120   1.000000
   40       -3.583065   1.000000
   41       -3.544955   1.000000
   42       -3.529204   1.000000
   43       -3.492538   1.000000
   44       -3.468101   1.000000
   45       -3.294002   1.000000
   46       -3.268968   1.000000
   47       -3.216755   1.000000
   48       -3.206329   1.000000
   49       -3.178149   1.000000
   50       -3.138375   1.000000
   51       -3.087921   1.000000
   52       -3.046129   1.000000
   53       -2.983148   1.000000
   54       -2.907468   1.000000
   55       -2.865095   1.000000
   56       -2.846368   1.000000
   57       -2.825752   1.000000
   58       -2.806007   1.000000
   59       -2.780544   1.000000
   60       -2.607390   1.000000
   61       -2.594103   1.000000
   62       -2.441770   1.000000
   63       -2.397124   1.000000
   64       -2.362780   1.000000
   65       -2.349719   1.000000
   66       -2.325500   1.000000
   67       -2.295865   1.000000
   68       -2.270430   1.000000
   69       -2.240220   1.000000
   70       -2.230912   1.000000
   71       -2.192496   1.000000
   72       -2.140898   1.000000
   73       -2.128891   1.000000
   74       -2.106057   1.000000
   75       -2.087954   1.000000
   76       -2.069199   1.000000
   77       -2.037790   1.000000
   78       -2.005491   1.000000
   79       -1.997992   1.000000
   80       -1.903563   1.000000
   81       -1.891815   1.000000
   82       -1.855834   1.000000
   83       -1.831811   1.000000
   84       -1.786591   1.000000
   85       -1.777503   1.000000
   86       -1.772034   1.000000
   87       -1.740822   1.000000
   88       -1.721865   1.000000
   89       -1.693293   1.000000
   90       -1.638453   1.000000
   91       -1.622891   1.000000
   92       -1.609099   1.000000
   93       -1.579777   1.000000
   94       -1.564987   1.000000
   95       -1.560027   1.000000
   96       -1.530965   1.000000
   97       -1.516766   1.000000
   98       -1.498423   1.000000
   99       -1.484151   1.000000
  100       -1.453424   1.000000
  101       -1.434637   1.000000
  102       -1.386258   1.000000
  103       -1.351948   1.000000
  104       -1.331671   1.000000
  105       -1.298949   1.000000
  106       -1.281136   1.000000
  107       -1.265776   1.000000
  108       -1.249627   1.000000
  109       -1.227247   1.000000
  110       -1.194023   1.000000
  111       -1.163331   1.000000
  112       -1.131044   1.000000
  113       -1.117631   1.000000
  114       -1.082460   1.000000
  115       -1.027972   1.000000
  116       -1.003224   1.000000
  117       -0.944563   1.000000
  118       -0.907283   1.000000
  119       -0.867996   1.000000
  120       -0.801729   1.000000
  121       -0.730627   1.000000
  122       -0.697662   1.000000
  123       -0.652636   1.000000
  124       -0.619512   1.000000
  125       -0.591401   1.000000
  126       -0.571913   1.000000
  127       -0.555801   1.000000
  128       -0.514534   1.000000
  129       -0.482789   1.000000
  130       -0.443923   1.000000
  131       -0.375462   1.000000
  132       -0.317717   1.000000
  133       -0.237395   1.000000
  134       -0.174777   1.000000
  135       -0.162421   1.000000
  136       -0.144307   1.000000
  137       -0.097547   1.000000
  138       -0.077963   1.000000
  139       -0.048295   1.000000
  140       -0.036891   1.000000
  141       -0.001047   0.999999
  142        0.038325   0.999999
  143        0.125502   0.999998
  144        0.158941   0.999997
  145        0.180287   0.999997
  146        0.204999   0.999996
  147        0.237104   0.999994
  148        0.259372   0.999993
  149        0.279611   0.999991
  150        0.294916   0.999990
  151        0.313853   0.999988
  152        0.341606   0.999984
  153        0.352926   0.999982
  154        0.392942   0.999973
  155        0.418862   0.999965
  156        0.447025   0.999954
  157        0.459750   0.999948
  158        0.505759   0.999918
  159        0.524499   0.999901
  160        0.554101   0.999866
  161        0.589148   0.999810
  162        0.646568   0.999663
  163        0.683599   0.999512
  164        0.714062   0.999338
  165        0.767130   0.998875
  166        0.791484   0.998566
  167        0.844732   0.997560
  168        0.872484   0.996782
  169        0.884936   0.996356
  170        0.924860   0.994578
  171        0.950464   0.993007
  172        0.983063   0.990338
  173        1.017873   0.986370
  174        1.039083   0.983204
  175        1.079601   0.975023
  176        1.100177   0.969490
  177        1.138755   0.955763
  178        1.159620   0.946053
  179        1.173959   0.938249
  180        1.197868   0.922857
  181        1.216970   0.908111
  182        1.241815   0.885172
  183        1.264016   0.860606
  184        1.275153   0.846701
  185        1.310739   0.794636
  186        1.350911   0.721394
  187        1.380460   0.658338
  188        1.392246   0.631354
  189        1.419365   0.566319
  190        1.428959   0.542623
  191        1.458715   0.468377
  192        1.477327   0.422438
  193        1.510240   0.344815
  194        1.540504   0.279983
  195        1.588502   0.193953
  196        1.644431   0.120913
  197        1.656076   0.109071
  198        1.674327   0.092559
  199        1.709585   0.066898
  200        1.763853   0.040001
  201        1.841626   0.018784
  202        1.964983   0.005545
  203        1.993210   0.004187
  204        2.019400   0.003225
  205        2.385241   0.000083
  206        2.664889   0.000005
  207        2.876985   0.000001
  208        3.094969   0.000000
  209        3.132792   0.000000
  210        3.632442   0.000000
  211        4.047378   0.000000
  212        4.404980   0.000000
  213        4.800131   0.000000
  214        4.831850   0.000000
  215        5.179382   0.000000
  216        5.334672   0.000000
  217        5.497009   0.000000
  218        5.674462   0.000000
  219        5.823774   0.000000
  220        5.908112   0.000000