<?xml version="1.0" encoding="ISO-8859-1"?>
<modeling>
 <generator>
  <i name="program" type="string">vasp </i>
  <i name="version" type="string">5.4.1  </i>
  <i name="subversion" type="string">24Jun15 (build Oct 10 2016 12:42:00) complex                          parallel </i>
  <i name="platform" type="string">IFC91_ompi </i>
  <i name="date" type="string">2018 06 30 </i>
  <i name="time" type="string">20:33:11 </i>
 </generator>
 <incar>
  <i type="string" name="PREC">normal</i>
  <i type="string" name="ALGO"> fast</i>
  <i type="int" name="ISPIN">     1</i>
  <i type="int" name="NELMDL">    -4</i>
  <i type="int" name="NELMIN">     4</i>
  <i name="EDIFF">      0.00000100</i>
  <i name="ENCUT">    400.00000000</i>
  <i type="string" name="LREAL"> auto</i>
  <i type="int" name="ISMEAR">    -1</i>
  <i name="SIGMA">      0.10000000</i>
  <i type="logical" name="LWAVE"> F  </i>
  <i type="logical" name="LCHARG"> F  </i>
  <v type="int" name="KPOINT_BSE">    -1     0     0     0</v>
  <i type="string" name="GGA"> PE</i>
 </incar>
 <kpoints>
  <generation param="Monkhorst-Pack">
   <v type="int" name="divisions">       6        6        1 </v>
   <v name="usershift">      0.00000000       0.00000000       0.00000000 </v>
   <v name="genvec1">      0.16666667      -0.00000000       0.00000000 </v>
   <v name="genvec2">      0.00000000       0.16666667       0.00000000 </v>
   <v name="genvec3">      0.00000000       0.00000000       1.00000000 </v>
   <v name="shift">      0.50000000       0.50000000       0.00000000 </v>
  </generation>
  <varray name="kpointlist" >
   <v>       0.08333333       0.08333333       0.00000000 </v>
   <v>       0.00000000       0.08333333       0.00000000 </v>
   <v>      -0.08333333       0.00000000       0.00000000 </v>
   <v>       0.25000000       0.08333333       0.00000000 </v>
   <v>       0.16666667       0.25000000       0.00000000 </v>
   <v>      -0.08333333       0.16666667       0.00000000 </v>
   <v>       0.16666667      -0.08333333       0.00000000 </v>
   <v>      -0.08333333      -0.25000000       0.00000000 </v>
   <v>      -0.25000000      -0.16666667       0.00000000 </v>
   <v>       0.41666667       0.08333333       0.00000000 </v>
   <v>       0.33333333       0.41666667       0.00000000 </v>
   <v>      -0.08333333       0.33333333       0.00000000 </v>
   <v>       0.33333333      -0.08333333       0.00000000 </v>
   <v>      -0.08333333      -0.41666667       0.00000000 </v>
   <v>      -0.41666667      -0.33333333       0.00000000 </v>
   <v>      -0.41666667       0.08333333       0.00000000 </v>
   <v>       0.50000000      -0.41666667       0.00000000 </v>
   <v>      -0.08333333       0.50000000       0.00000000 </v>
   <v>       0.50000000      -0.08333333       0.00000000 </v>
   <v>      -0.08333333       0.41666667       0.00000000 </v>
   <v>       0.41666667       0.50000000       0.00000000 </v>
   <v>      -0.25000000       0.08333333       0.00000000 </v>
   <v>      -0.33333333      -0.25000000       0.00000000 </v>
   <v>      -0.08333333      -0.33333333       0.00000000 </v>
   <v>      -0.33333333      -0.08333333       0.00000000 </v>
   <v>      -0.08333333       0.25000000       0.00000000 </v>
   <v>       0.25000000       0.33333333       0.00000000 </v>
   <v>      -0.08333333       0.08333333       0.00000000 </v>
   <v>      -0.16666667      -0.08333333       0.00000000 </v>
   <v>      -0.08333333      -0.16666667       0.00000000 </v>
   <v>       0.25000000       0.25000000       0.00000000 </v>
   <v>       0.00000000       0.25000000       0.00000000 </v>
   <v>      -0.25000000       0.00000000       0.00000000 </v>
   <v>       0.41666667       0.25000000       0.00000000 </v>
   <v>       0.16666667       0.41666667       0.00000000 </v>
   <v>      -0.25000000       0.16666667       0.00000000 </v>
   <v>       0.16666667      -0.25000000       0.00000000 </v>
   <v>      -0.25000000      -0.41666667       0.00000000 </v>
   <v>      -0.41666667      -0.16666667       0.00000000 </v>
   <v>      -0.41666667       0.25000000       0.00000000 </v>
   <v>       0.33333333      -0.41666667       0.00000000 </v>
   <v>      -0.25000000       0.33333333       0.00000000 </v>
   <v>       0.33333333      -0.25000000       0.00000000 </v>
   <v>      -0.25000000       0.41666667       0.00000000 </v>
   <v>       0.41666667      -0.33333333       0.00000000 </v>
   <v>      -0.25000000       0.25000000       0.00000000 </v>
   <v>       0.50000000      -0.25000000       0.00000000 </v>
   <v>      -0.25000000       0.50000000       0.00000000 </v>
   <v>       0.41666667       0.41666667       0.00000000 </v>
   <v>       0.00000000       0.41666667       0.00000000 </v>
   <v>      -0.41666667      -0.00000000       0.00000000 </v>
   <v>      -0.41666667       0.41666667       0.00000000 </v>
   <v>       0.16666667      -0.41666667       0.00000000 </v>
   <v>      -0.41666667       0.16666667       0.00000000 </v>
  </varray>
  <varray name="weights" >
   <v>       0.01851852 </v>
   <v>       0.01851852 </v>
   <v>       0.01851852 </v>
   <v>       0.01851852 </v>
   <v>       0.01851852 </v>
   <v>       0.01851852 </v>
   <v>       0.01851852 </v>
   <v>       0.01851852 </v>
   <v>       0.01851852 </v>
   <v>       0.01851852 </v>
   <v>       0.01851852 </v>
   <v>       0.01851852 </v>
   <v>       0.01851852 </v>
   <v>       0.01851852 </v>
   <v>       0.01851852 </v>
   <v>       0.01851852 </v>
   <v>       0.01851852 </v>
   <v>       0.01851852 </v>
   <v>       0.01851852 </v>
   <v>       0.01851852 </v>
   <v>       0.01851852 </v>
   <v>       0.01851852 </v>
   <v>       0.01851852 </v>
   <v>       0.01851852 </v>
   <v>       0.01851852 </v>
   <v>       0.01851852 </v>
   <v>       0.01851852 </v>
   <v>       0.01851852 </v>
   <v>       0.01851852 </v>
   <v>       0.01851852 </v>
   <v>       0.01851852 </v>
   <v>       0.01851852 </v>
   <v>       0.01851852 </v>
   <v>       0.01851852 </v>
   <v>       0.01851852 </v>
   <v>       0.01851852 </v>
   <v>       0.01851852 </v>
   <v>       0.01851852 </v>
   <v>       0.01851852 </v>
   <v>       0.01851852 </v>
   <v>       0.01851852 </v>
   <v>       0.01851852 </v>
   <v>       0.01851852 </v>
   <v>       0.01851852 </v>
   <v>       0.01851852 </v>
   <v>       0.01851852 </v>
   <v>       0.01851852 </v>
   <v>       0.01851852 </v>
   <v>       0.01851852 </v>
   <v>       0.01851852 </v>
   <v>       0.01851852 </v>
   <v>       0.01851852 </v>
   <v>       0.01851852 </v>
   <v>       0.01851852 </v>
  </varray>
 </kpoints>
 <parameters>
  <separator name="general" >
   <i type="string" name="SYSTEM">unknown system</i>
   <i type="logical" name="LCOMPAT"> F  </i>
  </separator>
  <separator name="electronic" >
   <i type="string" name="PREC">normal</i>
   <i name="ENMAX">    400.00000000</i>
   <i name="ENAUG">    644.87300000</i>
   <i name="EDIFF">      0.00000100</i>
   <i type="int" name="IALGO">    68</i>
   <i type="int" name="IWAVPR">    10</i>
   <i type="int" name="NBANDS">   225</i>
   <i name="NELECT">    373.00000000</i>
   <i type="int" name="TURBO">     0</i>
   <i type="int" name="IRESTART">     0</i>
   <i type="int" name="NREBOOT">     0</i>
   <i type="int" name="NMIN">     0</i>
   <i name="EREF">      0.00000000</i>
   <separator name="electronic smearing" >
    <i type="int" name="ISMEAR">    -1</i>
    <i name="SIGMA">      0.10000000</i>
    <i name="KSPACING">      0.50000000</i>
    <i type="logical" name="KGAMMA"> T  </i>
   </separator>
   <separator name="electronic projectors" >
    <i type="logical" name="LREAL"> T  </i>
    <v name="ROPT">     -0.00050000     -0.00050000     -0.00050000</v>
    <i type="int" name="LMAXPAW">  -100</i>
    <i type="int" name="LMAXMIX">     2</i>
    <i type="logical" name="NLSPLINE"> F  </i>
   </separator>
   <separator name="electronic startup" >
    <i type="int" name="ISTART">     0</i>
    <i type="int" name="ICHARG">     2</i>
    <i type="int" name="INIWAV">     1</i>
   </separator>
   <separator name="electronic spin" >
    <i type="int" name="ISPIN">     1</i>
    <i type="logical" name="LNONCOLLINEAR"> F  </i>
    <v name="MAGMOM">      1.00000000      1.00000000      1.00000000      1.00000000      1.00000000      1.00000000      1.00000000      1.00000000      1.00000000      1.00000000      1.00000000      1.00000000      1.00000000      1.00000000      1.00000000      1.00000000      1.00000000      1.00000000      1.00000000      1.00000000
      1.00000000      1.00000000      1.00000000      1.00000000      1.00000000      1.00000000      1.00000000      1.00000000      1.00000000      1.00000000      1.00000000      1.00000000      1.00000000      1.00000000      1.00000000      1.00000000      1.00000000      1.00000000      1.00000000      1.00000000
      1.00000000      1.00000000      1.00000000</v>
    <i name="NUPDOWN">     -1.00000000</i>
    <i type="logical" name="LSORBIT"> F  </i>
    <v name="SAXIS">      0.00000000      0.00000000      1.00000000</v>
    <i type="logical" name="LSPIRAL"> F  </i>
    <v name="QSPIRAL">      0.00000000      0.00000000      0.00000000</v>
    <i type="logical" name="LZEROZ"> F  </i>
   </separator>
   <separator name="electronic exchange-correlation" >
    <i type="logical" name="LASPH"> F  </i>
    <i type="logical" name="LMETAGGA"> F  </i>
   </separator>
   <separator name="electronic convergence" >
    <i type="int" name="NELM">    60</i>
    <i type="int" name="NELMDL">    -4</i>
    <i type="int" name="NELMIN">     4</i>
    <i name="ENINI">    400.00000000</i>
    <separator name="electronic convergence detail" >
     <i type="logical" name="LDIAG"> T  </i>
     <i type="logical" name="LSUBROT"> F  </i>
     <i name="WEIMIN">      0.00000000</i>
     <i name="EBREAK">      0.00000000</i>
     <i name="DEPER">      0.30000000</i>
     <i type="int" name="NRMM">     4</i>
     <i name="TIME">      0.40000000</i>
    </separator>
   </separator>
   <separator name="electronic mixer" >
    <i name="AMIX">      0.40000000</i>
    <i name="BMIX">      1.00000000</i>
    <i name="AMIN">      0.10000000</i>
    <i name="AMIX_MAG">      1.60000000</i>
    <i name="BMIX_MAG">      1.00000000</i>
    <separator name="electronic mixer details" >
     <i type="int" name="IMIX">     4</i>
     <i type="logical" name="MIXFIRST"> F  </i>
     <i type="int" name="MAXMIX">   -45</i>
     <i name="WC">    100.00000000</i>
     <i type="int" name="INIMIX">     1</i>
     <i type="int" name="MIXPRE">     1</i>
     <i type="int" name="MREMOVE">     5</i>
    </separator>
   </separator>
   <separator name="electronic dipolcorrection" >
    <i type="logical" name="LDIPOL"> F  </i>
    <i type="logical" name="LMONO"> F  </i>
    <i type="int" name="IDIPOL">     0</i>
    <i name="EPSILON">      1.00000000</i>
    <v name="DIPOL">   -100.00000000   -100.00000000   -100.00000000</v>
    <i name="EFIELD">      0.00000000</i>
   </separator>
  </separator>
  <separator name="grids" >
   <i type="int" name="NGX">    42</i>
   <i type="int" name="NGY">    42</i>
   <i type="int" name="NGZ">   108</i>
   <i type="int" name="NGXF">    84</i>
   <i type="int" name="NGYF">    84</i>
   <i type="int" name="NGZF">   216</i>
   <i type="logical" name="ADDGRID"> F  </i>
  </separator>
  <separator name="ionic" >
   <i type="int" name="NSW">     0</i>
   <i type="int" name="IBRION">    -1</i>
   <i type="int" name="ISIF">     2</i>
   <i name="PSTRESS">      0.00000000</i>
   <i name="EDIFFG">      0.00001000</i>
   <i type="int" name="NFREE">     0</i>
   <i name="POTIM">      0.50000000</i>
   <i name="SMASS">     -3.00000000</i>
   <i name="SCALEE">      1.00000000</i>
  </separator>
  <separator name="ionic md" >
   <i name="TEBEG">      0.00010000</i>
   <i name="TEEND">      0.00010000</i>
   <i type="int" name="NBLOCK">     1</i>
   <i type="int" name="KBLOCK">     1</i>
   <i type="int" name="NPACO">   256</i>
   <i name="APACO">     16.00000000</i>
  </separator>
  <separator name="symmetry" >
   <i type="int" name="ISYM">     2</i>
   <i name="SYMPREC">      0.00001000</i>
  </separator>
  <separator name="dos" >
   <i type="logical" name="LORBIT"> F  </i>
   <v name="RWIGS">     -1.00000000     -1.00000000     -1.00000000</v>
   <i type="int" name="NEDOS">   301</i>
   <i name="EMIN">     10.00000000</i>
   <i name="EMAX">    -10.00000000</i>
   <i name="EFERMI">      0.00000000</i>
  </separator>
  <separator name="writing" >
   <i type="int" name="NWRITE">     2</i>
   <i type="logical" name="LWAVE"> F  </i>
   <i type="logical" name="LCHARG"> F  </i>
   <i type="logical" name="LPARD"> F  </i>
   <i type="logical" name="LVTOT"> F  </i>
   <i type="logical" name="LVHAR"> F  </i>
   <i type="logical" name="LELF"> F  </i>
   <i type="logical" name="LOPTICS"> F  </i>
   <v name="STM">      0.00000000      0.00000000      0.00000000      0.00000000      0.00000000      0.00000000      0.00000000</v>
  </separator>
  <separator name="performance" >
   <i type="int" name="NPAR">     5</i>
   <i type="int" name="NSIM">     4</i>
   <i type="int" name="NBLK">    -1</i>
   <i type="logical" name="LPLANE"> T  </i>
   <i type="logical" name="LSCALAPACK"> T  </i>
   <i type="logical" name="LSCAAWARE"> F  </i>
   <i type="logical" name="LSCALU"> F  </i>
   <i type="logical" name="LASYNC"> F  </i>
   <i type="logical" name="LORBITALREAL"> F  </i>
  </separator>
  <separator name="miscellaneous" >
   <i type="int" name="IDIOT">     3</i>
   <i type="logical" name="LMUSIC"> F  </i>
   <v name="POMASS">    195.08000000     12.01100000      1.00000000</v>
   <v name="DARWINR">      0.00000000      0.00000000      0.00000000</v>
   <v name="DARWINV">      1.00000000      1.00000000      1.00000000</v>
   <i type="logical" name="LCORR"> T  </i>
  </separator>
  <i type="logical" name="GGA_COMPAT"> T  </i>
  <i type="logical" name="LBERRY"> F  </i>
  <i type="int" name="ICORELEVEL">     0</i>
  <i type="logical" name="LDAU"> F  </i>
  <i type="int" name="I_CONSTRAINED_M">     0</i>
  <separator name="electronic exchange-correlation" >
   <i type="string" name="GGA">PE</i>
   <i type="int" name="VOSKOWN">     0</i>
   <i type="logical" name="LHFCALC"> F  </i>
   <i type="string" name="PRECFOCK"></i>
   <i type="logical" name="LSYMGRAD"> F  </i>
   <i type="logical" name="LHFONE"> F  </i>
   <i type="logical" name="LRHFCALC"> F  </i>
   <i type="logical" name="LTHOMAS"> F  </i>
   <i type="logical" name="LMODELHF"> F  </i>
   <i name="ENCUT4O">     -1.00000000</i>
   <i type="int" name="EXXOEP">     0</i>
   <i type="int" name="FOURORBIT">     0</i>
   <i name="AEXX">      0.00000000</i>
   <i name="HFALPHA">      0.00000000</i>
   <i name="MCALPHA">      0.00000000</i>
   <i name="ALDAX">      1.00000000</i>
   <i name="AGGAX">      1.00000000</i>
   <i name="ALDAC">      1.00000000</i>
   <i name="AGGAC">      1.00000000</i>
   <i type="int" name="NKREDX">     1</i>
   <i type="int" name="NKREDY">     1</i>
   <i type="int" name="NKREDZ">     1</i>
   <i type="logical" name="SHIFTRED"> F  </i>
   <i type="logical" name="ODDONLY"> F  </i>
   <i type="logical" name="EVENONLY"> F  </i>
   <i type="int" name="LMAXFOCK">     0</i>
   <i type="int" name="NMAXFOCKAE">     0</i>
   <i type="logical" name="LFOCKAEDFT"> F  </i>
   <i name="HFSCREEN">      0.00000000</i>
   <i name="HFSCREENC">      0.00000000</i>
   <i type="int" name="NBANDSGWLOW">     0</i>
  </separator>
  <separator name="vdW DFT" >
   <i type="logical" name="LUSE_VDW"> F  </i>
   <i name="Zab_VDW">     -0.84910000</i>
   <i name="PARAM1">      0.12340000</i>
   <i name="PARAM2">      1.00000000</i>
   <i name="PARAM3">      0.00000000</i>
  </separator>
  <separator name="model GW" >
   <i type="int" name="MODEL_GW">     0</i>
   <i name="MODEL_EPS0">     18.74906726</i>
   <i name="MODEL_ALPHA">      1.00000000</i>
  </separator>
  <separator name="linear response parameters" >
   <i type="logical" name="LEPSILON"> F  </i>
   <i type="logical" name="LRPA"> F  </i>
   <i type="logical" name="LNABLA"> F  </i>
   <i type="logical" name="LVEL"> F  </i>
   <i type="int" name="KINTER">     0</i>
   <i name="CSHIFT">      0.10000000</i>
   <i name="OMEGAMAX">     -1.00000000</i>
   <i name="DEG_THRESHOLD">      0.00200000</i>
  </separator>
  <separator name="orbital magnetization" >
   <i type="logical" name="NUCIND"> F  </i>
   <v name="MAGPOS">      0.00000000      0.00000000      0.00000000</v>
   <i type="logical" name="LNICSALL"> T  </i>
   <i type="logical" name="ORBITALMAG"> F  </i>
   <i type="logical" name="LMAGBLOCH"> F  </i>
   <i type="logical" name="LCHIMAG"> F  </i>
   <i type="logical" name="LGAUGE"> T  </i>
   <i type="int" name="MAGATOM">     0</i>
   <v name="MAGDIPOL">      0.00000000      0.00000000      0.00000000</v>
   <v name="AVECCONST">      0.00000000      0.00000000      0.00000000</v>
  </separator>
  <separator name="response functions" >
   <i type="logical" name="LADDER"> F  </i>
   <i type="logical" name="LFXC"> F  </i>
   <i type="logical" name="LHARTREE"> T  </i>
   <i type="int" name="IBSE">     0</i>
   <v type="int" name="KPOINT">    -1     0     0     0</v>
   <i type="logical" name="LTCTE"> F  </i>
   <i type="logical" name="LTETE"> F  </i>
   <i type="logical" name="LTRIPLET"> F  </i>
   <i type="logical" name="LFXCEPS"> F  </i>
   <i type="logical" name="LFXHEG"> F  </i>
   <i type="int" name="NATURALO">     0</i>
   <i type="logical" name="L2ORDER"> F  </i>
   <i type="logical" name="LUSEW"> F  </i>
   <i name="ENCUTGW">     -2.00000000</i>
   <i name="ENCUTGWSOFT">     -2.00000000</i>
   <i name="ENCUTLF">     -1.00000000</i>
   <i type="int" name="LMAXMP2">    -1</i>
   <i name="SCISSOR">      0.00000000</i>
   <i type="int" name="NOMEGA">     0</i>
   <i type="int" name="NOMEGAR">     0</i>
   <i type="int" name="NBANDSGW">    -1</i>
   <i type="int" name="NBANDSO">    -1</i>
   <i type="int" name="NBANDSV">    -1</i>
   <i type="int" name="NELM">     1</i>
   <i type="int" name="NELMHF">     1</i>
   <i type="int" name="DIM">     3</i>
   <i type="int" name="ANTIRES">     0</i>
   <i name="OMEGAMAX">    -30.00000000</i>
   <i name="OMEGAMIN">    -30.00000000</i>
   <i name="OMEGATL">   -200.00000000</i>
   <i type="int" name="OMEGAGRID">     0</i>
   <i name="CSHIFT">     -0.10000000</i>
   <i type="logical" name="SELFENERGY"> F  </i>
   <i type="logical" name="LSPECTRAL"> F  </i>
   <i type="logical" name="LSPECTRALGW"> F  </i>
   <i type="logical" name="LSINGLES"> F  </i>
   <i type="logical" name="LFERMIGW"> F  </i>
   <i type="logical" name="ODDONLYGW"> F  </i>
   <i type="logical" name="EVENONLYGW"> F  </i>
   <i type="int" name="NKREDLFX">     1</i>
   <i type="int" name="NKREDLFY">     1</i>
   <i type="int" name="NKREDLFZ">     1</i>
   <i type="int" name="MAXMEM">  1800</i>
   <i type="int" name="TELESCOPE">     0</i>
   <i type="int" name="TAUPAR">     1</i>
   <i type="int" name="OMEGAPAR">    -1</i>
   <i name="LAMBDA">      1.00000000</i>
  </separator>
  <separator name="External order field" >
   <i name="OFIELD_KAPPA">      0.00000000</i>
   <v name="OFIELD_K">      0.00000000      0.00000000      0.00000000</v>
   <i name="OFIELD_Q6_NEAR">      0.00000000</i>
   <i name="OFIELD_Q6_FAR">      0.00000000</i>
   <i name="OFIELD_A">      0.00000000</i>
  </separator>
 </parameters>
 <atominfo>
  <atoms>      43 </atoms>
  <types>       3 </types>
  <array name="atoms" >
   <dimension dim="1">ion</dimension>
   <field type="string">element</field>
   <field type="int">atomtype</field>
   <set>
    <rc><c>Pt</c><c>   1</c></rc>
    <rc><c>Pt</c><c>   1</c></rc>
    <rc><c>Pt</c><c>   1</c></rc>
    <rc><c>Pt</c><c>   1</c></rc>
    <rc><c>Pt</c><c>   1</c></rc>
    <rc><c>Pt</c><c>   1</c></rc>
    <rc><c>Pt</c><c>   1</c></rc>
    <rc><c>Pt</c><c>   1</c></rc>
    <rc><c>Pt</c><c>   1</c></rc>
    <rc><c>Pt</c><c>   1</c></rc>
    <rc><c>Pt</c><c>   1</c></rc>
    <rc><c>Pt</c><c>   1</c></rc>
    <rc><c>Pt</c><c>   1</c></rc>
    <rc><c>Pt</c><c>   1</c></rc>
    <rc><c>Pt</c><c>   1</c></rc>
    <rc><c>Pt</c><c>   1</c></rc>
    <rc><c>Pt</c><c>   1</c></rc>
    <rc><c>Pt</c><c>   1</c></rc>
    <rc><c>Pt</c><c>   1</c></rc>
    <rc><c>Pt</c><c>   1</c></rc>
    <rc><c>Pt</c><c>   1</c></rc>
    <rc><c>Pt</c><c>   1</c></rc>
    <rc><c>Pt</c><c>   1</c></rc>
    <rc><c>Pt</c><c>   1</c></rc>
    <rc><c>Pt</c><c>   1</c></rc>
    <rc><c>Pt</c><c>   1</c></rc>
    <rc><c>Pt</c><c>   1</c></rc>
    <rc><c>Pt</c><c>   1</c></rc>
    <rc><c>Pt</c><c>   1</c></rc>
    <rc><c>Pt</c><c>   1</c></rc>
    <rc><c>Pt</c><c>   1</c></rc>
    <rc><c>Pt</c><c>   1</c></rc>
    <rc><c>Pt</c><c>   1</c></rc>
    <rc><c>Pt</c><c>   1</c></rc>
    <rc><c>Pt</c><c>   1</c></rc>
    <rc><c>Pt</c><c>   1</c></rc>
    <rc><c>C </c><c>   2</c></rc>
    <rc><c>C </c><c>   2</c></rc>
    <rc><c>H </c><c>   3</c></rc>
    <rc><c>H </c><c>   3</c></rc>
    <rc><c>H </c><c>   3</c></rc>
    <rc><c>H </c><c>   3</c></rc>
    <rc><c>H </c><c>   3</c></rc>
   </set>
  </array>
  <array name="atomtypes" >
   <dimension dim="1">type</dimension>
   <field type="int">atomspertype</field>
   <field type="string">element</field>
   <field>mass</field>
   <field>valence</field>
   <field type="string">pseudopotential</field>
   <set>
    <rc><c>  36</c><c>Pt</c><c>    195.08000000</c><c>     10.00000000</c><c>  PAW_PBE Pt 04Feb2005                  </c></rc>
    <rc><c>   2</c><c>C </c><c>     12.01100000</c><c>      4.00000000</c><c>  PAW_PBE C 08Apr2002                   </c></rc>
    <rc><c>   5</c><c>H </c><c>      1.00000000</c><c>      1.00000000</c><c>  PAW_PBE H 15Jun2001                   </c></rc>
   </set>
  </array>
 </atominfo>
 <structure name="initialpos" >
  <crystal>
   <varray name="basis" >
    <v>       8.42164176       0.00000000       0.00000000 </v>
    <v>       4.21082088       7.29335571       0.00000000 </v>
    <v>       0.00000000       0.00000000      21.87624171 </v>
   </varray>
   <i name="volume">   1343.68315334 </i>
   <varray name="rec_basis" >
    <v>       0.11874169      -0.06855555       0.00000000 </v>
    <v>       0.00000000       0.13711110       0.00000000 </v>
    <v>       0.00000000       0.00000000       0.04571169 </v>
   </varray>
  </crystal>
  <varray name="positions" >
   <v>       0.00000000       0.00000000       0.34283768 </v>
   <v>       0.33333333       0.00000000       0.34283768 </v>
   <v>       0.66666667       0.00000000       0.34283768 </v>
   <v>       0.00000000       0.33333333       0.34283768 </v>
   <v>       0.33333333       0.33333333       0.34283768 </v>
   <v>       0.66666667       0.33333333       0.34283768 </v>
   <v>       0.00000000       0.66666667       0.34283768 </v>
   <v>       0.33333333       0.66666667       0.34283768 </v>
   <v>       0.66666667       0.66666667       0.34283768 </v>
   <v>       0.11111111       0.11111111       0.44761256 </v>
   <v>       0.44444444       0.11111111       0.44761256 </v>
   <v>       0.77777778       0.11111111       0.44761256 </v>
   <v>       0.11111111       0.44444444       0.44761256 </v>
   <v>       0.44444444       0.44444444       0.44761256 </v>
   <v>       0.77777778       0.44444444       0.44761256 </v>
   <v>       0.11111111       0.77777778       0.44761256 </v>
   <v>       0.44444444       0.77777778       0.44761256 </v>
   <v>       0.77777778       0.77777778       0.44761256 </v>
   <v>       0.88788872       0.22371410       0.55084510 </v>
   <v>       0.22250991       0.22487959       0.55256961 </v>
   <v>       0.55162472       0.22511764       0.55273788 </v>
   <v>       0.88825129       0.55691533       0.55104053 </v>
   <v>       0.22274234       0.55395918       0.55282234 </v>
   <v>       0.55420439       0.55703018       0.55110585 </v>
   <v>       0.88785869       0.89037315       0.55095412 </v>
   <v>       0.22121508       0.89024407       0.55090491 </v>
   <v>       0.55434115       0.89078055       0.55107839 </v>
   <v>       0.99749911       0.00302073       0.65600534 </v>
   <v>       0.33063226       0.00257771       0.65594694 </v>
   <v>       0.66470623       0.00267634       0.65609433 </v>
   <v>       0.99723162       0.33633397       0.65591322 </v>
   <v>       0.33146357       0.33601849       0.66765527 </v>
   <v>       0.66486105       0.33615947       0.65596561 </v>
   <v>       0.99733748       0.67000276       0.65608001 </v>
   <v>       0.33045201       0.67004783       0.65611405 </v>
   <v>       0.66422423       0.66995940       0.65595250 </v>
   <v>       0.32314445       0.32920475       0.76333758 </v>
   <v>       0.45009277       0.37890366       0.79630160 </v>
   <v>       0.17830031       0.42423223       0.77428995 </v>
   <v>       0.35513417       0.18833645       0.77349130 </v>
   <v>       0.43634033       0.36614004       0.84612162 </v>
   <v>       0.59503165       0.28702786       0.78447532 </v>
   <v>       0.41659303       0.52075038       0.78725812 </v>
  </varray>
  <varray name="selective"  type="logical" >
   <v type="logical" >  F  F  F </v>
   <v type="logical" >  F  F  F </v>
   <v type="logical" >  F  F  F </v>
   <v type="logical" >  F  F  F </v>
   <v type="logical" >  F  F  F </v>
   <v type="logical" >  F  F  F </v>
   <v type="logical" >  F  F  F </v>
   <v type="logical" >  F  F  F </v>
   <v type="logical" >  F  F  F </v>
   <v type="logical" >  F  F  F </v>
   <v type="logical" >  F  F  F </v>
   <v type="logical" >  F  F  F </v>
   <v type="logical" >  F  F  F </v>
   <v type="logical" >  F  F  F </v>
   <v type="logical" >  F  F  F </v>
   <v type="logical" >  F  F  F </v>
   <v type="logical" >  F  F  F </v>
   <v type="logical" >  F  F  F </v>
   <v type="logical" >  T  T  T </v>
   <v type="logical" >  T  T  T </v>
   <v type="logical" >  T  T  T </v>
   <v type="logical" >  T  T  T </v>
   <v type="logical" >  T  T  T </v>
   <v type="logical" >  T  T  T </v>
   <v type="logical" >  T  T  T </v>
   <v type="logical" >  T  T  T </v>
   <v type="logical" >  T  T  T </v>
   <v type="logical" >  T  T  T </v>
   <v type="logical" >  T  T  T </v>
   <v type="logical" >  T  T  T </v>
   <v type="logical" >  T  T  T </v>
   <v type="logical" >  T  T  T </v>
   <v type="logical" >  T  T  T </v>
   <v type="logical" >  T  T  T </v>
   <v type="logical" >  T  T  T </v>
   <v type="logical" >  T  T  T </v>
   <v type="logical" >  T  T  T </v>
   <v type="logical" >  T  T  T </v>
   <v type="logical" >  T  T  T </v>
   <v type="logical" >  T  T  T </v>
   <v type="logical" >  T  T  T </v>
   <v type="logical" >  T  T  T </v>
   <v type="logical" >  T  T  T </v>
  </varray>
  <nose>
   <v>      -3.00000000       0.00000000       0.00010000       0.00010000 </v>
  </nose>
 </structure>
 <calculation>
  <scstep>
   <time name="dav">   69.76   70.23</time>
   <time name="total">   69.83   70.34</time>
   <energy>
    <i name="alphaZ">    964.74099640 </i>
    <i name="ewald">  89927.01451154 </i>
    <i name="hartreedc">-118414.49157282 </i>
    <i name="XCdc">    159.00729334 </i>
    <i name="pawpsdc">  25288.16150535 </i>
    <i name="pawaedc"> -24271.14804981 </i>
    <i name="eentropy">     -0.55531393 </i>
    <i name="bandstr">   1930.05838416 </i>
    <i name="atom">  26604.67787617 </i>
    <i name="e_fr_energy">   2187.46563041 </i>
    <i name="e_wo_entrp">   2188.02094434 </i>
    <i name="e_0_energy">   2187.74328737 </i>
   </energy>
  </scstep>
  <scstep>
   <time name="dav">   81.48   81.59</time>
   <time name="total">   81.49   81.65</time>
   <energy>
    <i name="e_fr_energy">    -97.28959112 </i>
    <i name="e_wo_entrp">    -96.21651607 </i>
    <i name="e_0_energy">    -96.75305359 </i>
   </energy>
  </scstep>
  <scstep>
   <time name="dav">   83.67   84.07</time>
   <time name="total">   83.68   84.14</time>
   <energy>
    <i name="e_fr_energy">   -258.30404654 </i>
    <i name="e_wo_entrp">   -256.40157303 </i>
    <i name="e_0_energy">   -257.35280979 </i>
   </energy>
  </scstep>
  <scstep>
   <time name="dav">   90.64   90.94</time>
   <time name="total">   93.03   93.39</time>
   <energy>
    <i name="e_fr_energy">   -265.34715858 </i>
    <i name="e_wo_entrp">   -263.38647730 </i>
    <i name="e_0_energy">   -264.36681794 </i>
   </energy>
  </scstep>
  <scstep>
   <time name="diag">   10.74   10.75</time>
   <time name="diis">   28.89   29.15</time>
   <time name="orth">    3.06    3.08</time>
   <time name="total">   45.77   46.10</time>
   <energy>
    <i name="e_fr_energy">   -252.49966774 </i>
    <i name="e_wo_entrp">   -250.41853098 </i>
    <i name="e_0_energy">   -251.45909936 </i>
   </energy>
  </scstep>
  <scstep>
   <time name="diag">   10.81   10.80</time>
   <time name="diis">   29.15   29.18</time>
   <time name="orth">    2.96    2.97</time>
   <time name="total">   45.40   45.46</time>
   <energy>
    <i name="e_fr_energy">   -293.35413455 </i>
    <i name="e_wo_entrp">   -292.13914432 </i>
    <i name="e_0_energy">   -292.74663943 </i>
   </energy>
  </scstep>
  <scstep>
   <time name="diag">   13.46   13.49</time>
   <time name="diis">   29.01   29.19</time>
   <time name="orth">    3.07    3.14</time>
   <time name="total">   49.10   49.59</time>
   <energy>
    <i name="e_fr_energy">   -252.04705440 </i>
    <i name="e_wo_entrp">   -250.20824390 </i>
    <i name="e_0_energy">   -251.12764915 </i>
   </energy>
  </scstep>
  <scstep>
   <time name="diag">   11.17   11.24</time>
   <time name="diis">   29.48   29.72</time>
   <time name="orth">    3.51    3.54</time>
   <time name="total">   46.55   46.91</time>
   <energy>
    <i name="e_fr_energy">   -260.48231653 </i>
    <i name="e_wo_entrp">   -259.06840207 </i>
    <i name="e_0_energy">   -259.77535930 </i>
   </energy>
  </scstep>
  <scstep>
   <time name="diag">   11.20   11.22</time>
   <time name="diis">   30.16   30.20</time>
   <time name="orth">    3.03    3.04</time>
   <time name="total">   48.73   48.83</time>
   <energy>
    <i name="e_fr_energy">   -256.19265803 </i>
    <i name="e_wo_entrp">   -254.44658042 </i>
    <i name="e_0_energy">   -255.31961923 </i>
   </energy>
  </scstep>
  <scstep>
   <time name="diag">   11.08   11.07</time>
   <time name="diis">   29.86   29.90</time>
   <time name="orth">    3.05    3.17</time>
   <time name="total">   46.35   46.59</time>
   <energy>
    <i name="e_fr_energy">   -247.27002883 </i>
    <i name="e_wo_entrp">   -245.21343364 </i>
    <i name="e_0_energy">   -246.24173123 </i>
   </energy>
  </scstep>
  <scstep>
   <time name="diag">   11.34   11.33</time>
   <time name="diis">   29.78   29.86</time>
   <time name="orth">    3.06    3.12</time>
   <time name="total">   48.24   48.38</time>
   <energy>
    <i name="e_fr_energy">   -246.67055086 </i>
    <i name="e_wo_entrp">   -244.55490680 </i>
    <i name="e_0_energy">   -245.61272883 </i>
   </energy>
  </scstep>
  <scstep>
   <time name="diag">   10.85   10.88</time>
   <time name="diis">   29.76   29.85</time>
   <time name="orth">    3.05    3.07</time>
   <time name="total">   46.15   46.32</time>
   <energy>
    <i name="e_fr_energy">   -246.26266379 </i>
    <i name="e_wo_entrp">   -244.11213619 </i>
    <i name="e_0_energy">   -245.18739999 </i>
   </energy>
  </scstep>
  <scstep>
   <time name="diag">   10.85   10.84</time>
   <time name="diis">   30.05   30.43</time>
   <time name="orth">    6.19    6.25</time>
   <time name="total">   50.64   51.27</time>
   <energy>
    <i name="e_fr_energy">   -246.15201668 </i>
    <i name="e_wo_entrp">   -244.01057437 </i>
    <i name="e_0_energy">   -245.08129552 </i>
   </energy>
  </scstep>
  <scstep>
   <time name="diag">   10.73   10.83</time>
   <time name="diis">   30.44   30.74</time>
   <time name="orth">    3.00    3.04</time>
   <time name="total">   46.61   47.09</time>
   <energy>
    <i name="e_fr_energy">   -246.11556754 </i>
    <i name="e_wo_entrp">   -243.97583727 </i>
    <i name="e_0_energy">   -245.04570241 </i>
   </energy>
  </scstep>
  <scstep>
   <time name="diag">   10.51   10.68</time>
   <time name="diis">   30.02   30.01</time>
   <time name="orth">    3.03    3.03</time>
   <time name="total">   46.11   46.41</time>
   <energy>
    <i name="e_fr_energy">   -246.10620420 </i>
    <i name="e_wo_entrp">   -243.96303246 </i>
    <i name="e_0_energy">   -245.03461833 </i>
   </energy>
  </scstep>
  <scstep>
   <time name="diag">   10.90   10.89</time>
   <time name="diis">   29.05   29.24</time>
   <time name="orth">    3.07    3.11</time>
   <time name="total">   45.36   45.65</time>
   <energy>
    <i name="e_fr_energy">   -246.09771098 </i>
    <i name="e_wo_entrp">   -243.94984952 </i>
    <i name="e_0_energy">   -245.02378025 </i>
   </energy>
  </scstep>
  <scstep>
   <time name="diag">   10.74   10.77</time>
   <time name="diis">   29.12   29.25</time>
   <time name="orth">    2.99    3.05</time>
   <time name="total">   45.67   46.29</time>
   <energy>
    <i name="e_fr_energy">   -246.09397083 </i>
    <i name="e_wo_entrp">   -243.94620409 </i>
    <i name="e_0_energy">   -245.02008746 </i>
   </energy>
  </scstep>
  <scstep>
   <time name="diag">   10.64   10.78</time>
   <time name="diis">   29.52   29.52</time>
   <time name="orth">    3.87    4.23</time>
   <time name="total">   46.53   47.06</time>
   <energy>
    <i name="e_fr_energy">   -246.09240429 </i>
    <i name="e_wo_entrp">   -243.94470209 </i>
    <i name="e_0_energy">   -245.01855319 </i>
   </energy>
  </scstep>
  <scstep>
   <time name="diag">   10.70   10.86</time>
   <time name="diis">   29.47   29.84</time>
   <time name="orth">    3.02    3.13</time>
   <time name="total">   46.32   47.25</time>
   <energy>
    <i name="e_fr_energy">   -246.09219014 </i>
    <i name="e_wo_entrp">   -243.94448979 </i>
    <i name="e_0_energy">   -245.01833996 </i>
   </energy>
  </scstep>
  <scstep>
   <time name="diag">   10.75   10.84</time>
   <time name="diis">   29.54   29.64</time>
   <time name="orth">    3.05    3.06</time>
   <time name="total">   46.21   46.54</time>
   <energy>
    <i name="e_fr_energy">   -246.09201209 </i>
    <i name="e_wo_entrp">   -243.94462191 </i>
    <i name="e_0_energy">   -245.01831700 </i>
   </energy>
  </scstep>
  <scstep>
   <time name="diag">   10.86   10.89</time>
   <time name="diis">   29.08   29.38</time>
   <time name="orth">    2.98    3.02</time>
   <time name="total">   45.34   45.75</time>
   <energy>
    <i name="e_fr_energy">   -246.09205810 </i>
    <i name="e_wo_entrp">   -243.94465678 </i>
    <i name="e_0_energy">   -245.01835744 </i>
   </energy>
  </scstep>
  <scstep>
   <time name="diag">   10.62   10.76</time>
   <time name="diis">   29.25   29.57</time>
   <time name="orth">    2.96    3.05</time>
   <time name="total">   45.20   45.92</time>
   <energy>
    <i name="e_fr_energy">   -246.09221959 </i>
    <i name="e_wo_entrp">   -243.94471917 </i>
    <i name="e_0_energy">   -245.01846938 </i>
   </energy>
  </scstep>
  <scstep>
   <time name="diag">   10.74   10.74</time>
   <time name="diis">   29.52   29.72</time>
   <time name="orth">    3.04    3.04</time>
   <time name="total">   45.74   45.95</time>
   <energy>
    <i name="e_fr_energy">   -246.09237784 </i>
    <i name="e_wo_entrp">   -243.94481081 </i>
    <i name="e_0_energy">   -245.01859432 </i>
   </energy>
  </scstep>
  <scstep>
   <time name="diag">   10.69   10.68</time>
   <time name="diis">   29.00   28.99</time>
   <time name="orth">    2.89    2.91</time>
   <time name="total">   44.93   45.01</time>
   <energy>
    <i name="e_fr_energy">   -246.09267979 </i>
    <i name="e_wo_entrp">   -243.94517945 </i>
    <i name="e_0_energy">   -245.01892962 </i>
   </energy>
  </scstep>
  <scstep>
   <time name="diag">   11.00   10.99</time>
   <time name="diis">   28.84   28.82</time>
   <time name="orth">    3.03    3.13</time>
   <time name="total">   45.78   45.87</time>
   <energy>
    <i name="e_fr_energy">   -246.09308259 </i>
    <i name="e_wo_entrp">   -243.94574857 </i>
    <i name="e_0_energy">   -245.01941558 </i>
   </energy>
  </scstep>
  <scstep>
   <time name="diag">   10.92   11.04</time>
   <time name="diis">   28.15   28.48</time>
   <time name="orth">    2.97    3.10</time>
   <time name="total">   44.39   45.08</time>
   <energy>
    <i name="e_fr_energy">   -246.09341301 </i>
    <i name="e_wo_entrp">   -243.94605470 </i>
    <i name="e_0_energy">   -245.01973385 </i>
   </energy>
  </scstep>
  <scstep>
   <time name="diag">   10.86   10.99</time>
   <time name="diis">   25.49   25.74</time>
   <time name="orth">    2.93    3.04</time>
   <time name="total">   41.65   42.33</time>
   <energy>
    <i name="e_fr_energy">   -246.09352515 </i>
    <i name="e_wo_entrp">   -243.94608452 </i>
    <i name="e_0_energy">   -245.01980484 </i>
   </energy>
  </scstep>
  <scstep>
   <time name="diag">   10.99   11.05</time>
   <time name="diis">   23.19   23.54</time>
   <time name="orth">    3.10    3.11</time>
   <time name="total">   39.73   40.21</time>
   <energy>
    <i name="e_fr_energy">   -246.09370391 </i>
    <i name="e_wo_entrp">   -243.94617939 </i>
    <i name="e_0_energy">   -245.01994165 </i>
   </energy>
  </scstep>
  <scstep>
   <time name="diag">   10.65   10.79</time>
   <time name="diis">   20.82   20.92</time>
   <time name="orth">    2.99    3.05</time>
   <time name="total">   36.94   37.28</time>
   <energy>
    <i name="e_fr_energy">   -246.09382454 </i>
    <i name="e_wo_entrp">   -243.94628031 </i>
    <i name="e_0_energy">   -245.02005242 </i>
   </energy>
  </scstep>
  <scstep>
   <time name="diag">   11.00   11.03</time>
   <time name="diis">   21.52   21.55</time>
   <time name="orth">    3.14    3.25</time>
   <time name="total">   38.48   38.94</time>
   <energy>
    <i name="e_fr_energy">   -246.09397596 </i>
    <i name="e_wo_entrp">   -243.94640110 </i>
    <i name="e_0_energy">   -245.02018853 </i>
   </energy>
  </scstep>
  <scstep>
   <time name="diag">   10.89   10.88</time>
   <time name="diis">   19.48   19.64</time>
   <time name="orth">    3.00    3.06</time>
   <time name="total">   36.19   36.46</time>
   <energy>
    <i name="e_fr_energy">   -246.09404805 </i>
    <i name="e_wo_entrp">   -243.94645386 </i>
    <i name="e_0_energy">   -245.02025096 </i>
   </energy>
  </scstep>
  <scstep>
   <time name="diag">   10.86   10.92</time>
   <time name="diis">   19.88   19.87</time>
   <time name="orth">    3.11    3.12</time>
   <time name="total">   36.28   36.37</time>
   <energy>
    <i name="e_fr_energy">   -246.09408661 </i>
    <i name="e_wo_entrp">   -243.94649964 </i>
    <i name="e_0_energy">   -245.02029312 </i>
   </energy>
  </scstep>
  <scstep>
   <time name="diag">   12.23   12.38</time>
   <time name="diis">   17.58   17.59</time>
   <time name="orth">    3.02    3.04</time>
   <time name="total">   37.35   37.54</time>
   <energy>
    <i name="e_fr_energy">   -246.09409960 </i>
    <i name="e_wo_entrp">   -243.94652054 </i>
    <i name="e_0_energy">   -245.02031007 </i>
   </energy>
  </scstep>
  <scstep>
   <time name="diag">   10.90   10.91</time>
   <time name="diis">   17.63   17.62</time>
   <time name="orth">    3.07    3.07</time>
   <time name="total">   34.04   34.10</time>
   <energy>
    <i name="e_fr_energy">   -246.09411408 </i>
    <i name="e_wo_entrp">   -243.94654923 </i>
    <i name="e_0_energy">   -245.02033166 </i>
   </energy>
  </scstep>
  <scstep>
   <time name="diag">   10.94   10.93</time>
   <time name="diis">   15.89   15.88</time>
   <time name="orth">    3.01    3.04</time>
   <time name="total">   32.53   32.55</time>
   <energy>
    <i name="e_fr_energy">   -246.09412074 </i>
    <i name="e_wo_entrp">   -243.94656301 </i>
    <i name="e_0_energy">   -245.02034187 </i>
   </energy>
  </scstep>
  <scstep>
   <time name="diag">   10.98   10.98</time>
   <time name="diis">   16.79   16.81</time>
   <time name="orth">    3.03    3.06</time>
   <time name="total">   33.18   33.28</time>
   <energy>
    <i name="e_fr_energy">   -246.09412542 </i>
    <i name="e_wo_entrp">   -243.94656765 </i>
    <i name="e_0_energy">   -245.02034654 </i>
   </energy>
  </scstep>
  <scstep>
   <time name="diag">   10.82   10.81</time>
   <time name="diis">   14.33   14.32</time>
   <time name="orth">    3.06    3.15</time>
   <time name="total">   31.45   31.61</time>
   <energy>
    <i name="e_fr_energy">   -246.09412650 </i>
    <i name="e_wo_entrp">   -243.94656750 </i>
    <i name="e_0_energy">   -245.02034700 </i>
   </energy>
  </scstep>
  <scstep>
   <time name="diag">   10.91   10.95</time>
   <time name="diis">   13.30   13.53</time>
   <time name="orth">    3.00    3.10</time>
   <time name="total">   27.30   27.70</time>
   <energy>
    <i name="alphaZ">    964.74099640 </i>
    <i name="ewald">  89927.01451154 </i>
    <i name="hartreedc">-118142.42347938 </i>
    <i name="XCdc">    149.54256271 </i>
    <i name="pawpsdc">  32438.10717691 </i>
    <i name="pawaedc"> -31518.73703219 </i>
    <i name="eentropy">     -2.14755955 </i>
    <i name="bandstr">   -666.86917981 </i>
    <i name="atom">  26604.67787617 </i>
    <i name="e_fr_energy">   -246.09412720 </i>
    <i name="e_wo_entrp">   -243.94656765 </i>
    <i name="e_0_energy">   -245.02034743 </i>
   </energy>
  </scstep>
  <structure>
   <crystal>
    <varray name="basis" >
     <v>       8.42164176       0.00000000       0.00000000 </v>
     <v>       4.21082088       7.29335571       0.00000000 </v>
     <v>       0.00000000       0.00000000      21.87624171 </v>
    </varray>
    <i name="volume">   1343.68315334 </i>
    <varray name="rec_basis" >
     <v>       0.11874169      -0.06855555       0.00000000 </v>
     <v>       0.00000000       0.13711110       0.00000000 </v>
     <v>       0.00000000       0.00000000       0.04571169 </v>
    </varray>
   </crystal>
   <varray name="positions" >
    <v>       0.00000000       0.00000000       0.34283768 </v>
    <v>       0.33333333       0.00000000       0.34283768 </v>
    <v>       0.66666667       0.00000000       0.34283768 </v>
    <v>       0.00000000       0.33333333       0.34283768 </v>
    <v>       0.33333333       0.33333333       0.34283768 </v>
    <v>       0.66666667       0.33333333       0.34283768 </v>
    <v>       0.00000000       0.66666667       0.34283768 </v>
    <v>       0.33333333       0.66666667       0.34283768 </v>
    <v>       0.66666667       0.66666667       0.34283768 </v>
    <v>       0.11111111       0.11111111       0.44761256 </v>
    <v>       0.44444444       0.11111111       0.44761256 </v>
    <v>       0.77777778       0.11111111       0.44761256 </v>
    <v>       0.11111111       0.44444444       0.44761256 </v>
    <v>       0.44444444       0.44444444       0.44761256 </v>
    <v>       0.77777778       0.44444444       0.44761256 </v>
    <v>       0.11111111       0.77777778       0.44761256 </v>
    <v>       0.44444444       0.77777778       0.44761256 </v>
    <v>       0.77777778       0.77777778       0.44761256 </v>
    <v>       0.88788872       0.22371410       0.55084510 </v>
    <v>       0.22250991       0.22487959       0.55256961 </v>
    <v>       0.55162472       0.22511764       0.55273788 </v>
    <v>       0.88825129       0.55691533       0.55104053 </v>
    <v>       0.22274234       0.55395918       0.55282234 </v>
    <v>       0.55420439       0.55703018       0.55110585 </v>
    <v>       0.88785869       0.89037315       0.55095412 </v>
    <v>       0.22121508       0.89024407       0.55090491 </v>
    <v>       0.55434115       0.89078055       0.55107839 </v>
    <v>       0.99749911       0.00302073       0.65600534 </v>
    <v>       0.33063226       0.00257771       0.65594694 </v>
    <v>       0.66470623       0.00267634       0.65609433 </v>
    <v>       0.99723162       0.33633397       0.65591322 </v>
    <v>       0.33146357       0.33601849       0.66765527 </v>
    <v>       0.66486105       0.33615947       0.65596561 </v>
    <v>       0.99733748       0.67000276       0.65608001 </v>
    <v>       0.33045201       0.67004783       0.65611405 </v>
    <v>       0.66422423       0.66995940       0.65595250 </v>
    <v>       0.32314445       0.32920475       0.76333758 </v>
    <v>       0.45009277       0.37890366       0.79630160 </v>
    <v>       0.17830031       0.42423223       0.77428995 </v>
    <v>       0.35513417       0.18833645       0.77349130 </v>
    <v>       0.43634033       0.36614004       0.84612162 </v>
    <v>       0.59503165       0.28702786       0.78447532 </v>
    <v>       0.41659303       0.52075038       0.78725812 </v>
   </varray>
  </structure>
  <varray name="forces" >
   <v>       0.00409987      -0.00382449      -0.11866117 </v>
   <v>      -0.01389956      -0.00706201      -0.05512834 </v>
   <v>       0.01386199      -0.00639330      -0.04995728 </v>
   <v>      -0.00583248      -0.02060947      -0.05405063 </v>
   <v>       0.00084077      -0.00705445      -0.05467468 </v>
   <v>       0.00821975      -0.01907806      -0.05280949 </v>
   <v>       0.00876675       0.00287078      -0.05180931 </v>
   <v>      -0.00574946       0.00303687      -0.05224307 </v>
   <v>       0.00130931      -0.00824156      -0.04756462 </v>
   <v>      -0.01560819       0.00067899      -0.02981060 </v>
   <v>       0.00398157       0.06660326       0.19510996 </v>
   <v>       0.00252521       0.00313230      -0.02453244 </v>
   <v>       0.05266219      -0.01179675       0.20107314 </v>
   <v>      -0.05235837      -0.01994284       0.20815990 </v>
   <v>      -0.00649822       0.00517767       0.01618352 </v>
   <v>      -0.00726937       0.01236243      -0.01998371 </v>
   <v>      -0.00980556       0.01019591       0.02106795 </v>
   <v>       0.01045912       0.01525633       0.02227248 </v>
   <v>      -0.00878678       0.00740789      -0.00195465 </v>
   <v>       0.00519204      -0.00749165       0.00073894 </v>
   <v>       0.00182899      -0.00581311      -0.00735283 </v>
   <v>      -0.00530043       0.00377443       0.00107767 </v>
   <v>      -0.00110766       0.00517999       0.00159874 </v>
   <v>       0.00378557      -0.00157029      -0.00288427 </v>
   <v>      -0.00394430       0.00007309      -0.01184893 </v>
   <v>       0.00165539       0.00081408      -0.01144220 </v>
   <v>      -0.00090475      -0.00623178      -0.00988404 </v>
   <v>       0.00317658      -0.00272911       0.00930627 </v>
   <v>       0.00196913       0.00359501       0.00501653 </v>
   <v>       0.00087173      -0.00047278       0.00099909 </v>
   <v>       0.00922078      -0.00339059       0.00067383 </v>
   <v>      -0.00061205       0.00662958      -0.01162950 </v>
   <v>      -0.00096326      -0.00129694      -0.00743027 </v>
   <v>       0.00374857       0.00286140       0.00150117 </v>
   <v>       0.00690738       0.00074607      -0.00305695 </v>
   <v>       0.00403768      -0.00414684       0.00358657 </v>
   <v>      -0.01143957       0.00493287       0.00050458 </v>
   <v>      -0.00329110      -0.00233103      -0.01367406 </v>
   <v>      -0.00281148      -0.00188240      -0.00321827 </v>
   <v>       0.00485889      -0.00881083      -0.00362974 </v>
   <v>      -0.00674302      -0.00281529       0.01204409 </v>
   <v>       0.00890680      -0.01538860       0.00115267 </v>
   <v>       0.00003955       0.01304520      -0.00283606 </v>
  </varray>
  <varray name="stress" >
   <v>     -44.16102050       0.05706118       0.10025204 </v>
   <v>       0.05706114     -43.90338842      -0.25182865 </v>
   <v>       0.10025203      -0.25182875      -0.72880642 </v>
  </varray>
  <energy>
   <i name="e_fr_energy">   -246.09412720 </i>
   <i name="e_wo_entrp">   -245.02034743 </i>
   <i name="e_0_energy">     -2.14755955 </i>
  </energy>
  <time name="totalsc"> 1822.03 1835.43</time>
  <eigenvalues>
   <array>
    <dimension dim="1">band</dimension>
    <dimension dim="2">kpoint</dimension>
    <dimension dim="3">spin</dimension>
    <field>eigene</field>
    <field>occ</field>
    <set>
     <set comment="spin 1">
      <set comment="kpoint 1">
       <r>  -12.3741    1.0000 </r>
       <r>   -8.6674    1.0000 </r>
       <r>   -7.7966    1.0000 </r>
       <r>   -6.4793    1.0000 </r>
       <r>   -5.5107    1.0000 </r>
       <r>   -5.3937    1.0000 </r>
       <r>   -5.3865    1.0000 </r>
       <r>   -5.3658    1.0000 </r>
       <r>   -5.2886    1.0000 </r>
       <r>   -5.2362    1.0000 </r>
       <r>   -5.2270    1.0000 </r>
       <r>   -5.1953    1.0000 </r>
       <r>   -4.7638    1.0000 </r>
       <r>   -4.7508    1.0000 </r>
       <r>   -4.7385    1.0000 </r>
       <r>   -4.7258    1.0000 </r>
       <r>   -4.7213    1.0000 </r>
       <r>   -4.7089    1.0000 </r>
       <r>   -4.6903    1.0000 </r>
       <r>   -4.2842    1.0000 </r>
       <r>   -4.2593    1.0000 </r>
       <r>   -4.2364    1.0000 </r>
       <r>   -4.2205    1.0000 </r>
       <r>   -4.2060    1.0000 </r>
       <r>   -4.2014    1.0000 </r>
       <r>   -4.1425    1.0000 </r>
       <r>   -4.0919    1.0000 </r>
       <r>   -4.0498    1.0000 </r>
       <r>   -4.0082    1.0000 </r>
       <r>   -3.9311    1.0000 </r>
       <r>   -3.9089    1.0000 </r>
       <r>   -3.8638    1.0000 </r>
       <r>   -3.8473    1.0000 </r>
       <r>   -3.8352    1.0000 </r>
       <r>   -3.8265    1.0000 </r>
       <r>   -3.7939    1.0000 </r>
       <r>   -3.7812    1.0000 </r>
       <r>   -3.7660    1.0000 </r>
       <r>   -3.7536    1.0000 </r>
       <r>   -3.6932    1.0000 </r>
       <r>   -3.6861    1.0000 </r>
       <r>   -3.6607    1.0000 </r>
       <r>   -3.6026    1.0000 </r>
       <r>   -3.5831    1.0000 </r>
       <r>   -3.2399    1.0000 </r>
       <r>   -3.1561    1.0000 </r>
       <r>   -3.1548    1.0000 </r>
       <r>   -3.1286    1.0000 </r>
       <r>   -3.1202    1.0000 </r>
       <r>   -3.0901    1.0000 </r>
       <r>   -3.0772    1.0000 </r>
       <r>   -3.0653    1.0000 </r>
       <r>   -2.9808    1.0000 </r>
       <r>   -2.9710    1.0000 </r>
       <r>   -2.9156    1.0000 </r>
       <r>   -2.8784    1.0000 </r>
       <r>   -2.8612    1.0000 </r>
       <r>   -2.8088    1.0000 </r>
       <r>   -2.7902    1.0000 </r>
       <r>   -2.3837    1.0000 </r>
       <r>   -2.3717    1.0000 </r>
       <r>   -2.2820    1.0000 </r>
       <r>   -2.2748    1.0000 </r>
       <r>   -2.2608    1.0000 </r>
       <r>   -2.2325    1.0000 </r>
       <r>   -2.1961    1.0000 </r>
       <r>   -2.1907    1.0000 </r>
       <r>   -2.1709    1.0000 </r>
       <r>   -2.1643    1.0000 </r>
       <r>   -2.1468    1.0000 </r>
       <r>   -2.1166    1.0000 </r>
       <r>   -2.1016    1.0000 </r>
       <r>   -2.0848    1.0000 </r>
       <r>   -2.0481    1.0000 </r>
       <r>   -2.0391    1.0000 </r>
       <r>   -2.0332    1.0000 </r>
       <r>   -2.0077    1.0000 </r>
       <r>   -1.9545    1.0000 </r>
       <r>   -1.9463    1.0000 </r>
       <r>   -1.9321    1.0000 </r>
       <r>   -1.9112    1.0000 </r>
       <r>   -1.9042    1.0000 </r>
       <r>   -1.8589    1.0000 </r>
       <r>   -1.8340    1.0000 </r>
       <r>   -1.7897    1.0000 </r>
       <r>   -1.7675    1.0000 </r>
       <r>   -1.7564    1.0000 </r>
       <r>   -1.7320    1.0000 </r>
       <r>   -1.6496    1.0000 </r>
       <r>   -1.6224    1.0000 </r>
       <r>   -1.6097    1.0000 </r>
       <r>   -1.5775    1.0000 </r>
       <r>   -1.5618    1.0000 </r>
       <r>   -1.5319    1.0000 </r>
       <r>   -1.5302    1.0000 </r>
       <r>   -1.5024    1.0000 </r>
       <r>   -1.4878    1.0000 </r>
       <r>   -1.4711    1.0000 </r>
       <r>   -1.4477    1.0000 </r>
       <r>   -1.4154    1.0000 </r>
       <r>   -1.3888    1.0000 </r>
       <r>   -1.3807    1.0000 </r>
       <r>   -1.3565    1.0000 </r>
       <r>   -1.2740    1.0000 </r>
       <r>   -1.2578    1.0000 </r>
       <r>   -1.2386    1.0000 </r>
       <r>   -1.2368    1.0000 </r>
       <r>   -1.2230    1.0000 </r>
       <r>   -1.1907    1.0000 </r>
       <r>   -1.1870    1.0000 </r>
       <r>   -1.1575    1.0000 </r>
       <r>   -1.0726    1.0000 </r>
       <r>   -1.0588    1.0000 </r>
       <r>   -0.9214    1.0000 </r>
       <r>   -0.8627    1.0000 </r>
       <r>   -0.8224    1.0000 </r>
       <r>   -0.8039    1.0000 </r>
       <r>   -0.7415    1.0000 </r>
       <r>   -0.7046    1.0000 </r>
       <r>   -0.6445    1.0000 </r>
       <r>   -0.6335    1.0000 </r>
       <r>   -0.6234    1.0000 </r>
       <r>   -0.6045    1.0000 </r>
       <r>   -0.5978    1.0000 </r>
       <r>   -0.5658    1.0000 </r>
       <r>   -0.5420    1.0000 </r>
       <r>   -0.4724    1.0000 </r>
       <r>   -0.4651    1.0000 </r>
       <r>   -0.3948    1.0000 </r>
       <r>   -0.3913    1.0000 </r>
       <r>   -0.2138    1.0000 </r>
       <r>   -0.1932    1.0000 </r>
       <r>   -0.1752    1.0000 </r>
       <r>   -0.1014    1.0000 </r>
       <r>   -0.0916    1.0000 </r>
       <r>   -0.0853    1.0000 </r>
       <r>   -0.0635    1.0000 </r>
       <r>   -0.0566    1.0000 </r>
       <r>   -0.0425    1.0000 </r>
       <r>   -0.0270    1.0000 </r>
       <r>    0.0572    1.0000 </r>
       <r>    0.0674    1.0000 </r>
       <r>    0.0972    1.0000 </r>
       <r>    0.1226    1.0000 </r>
       <r>    0.1962    1.0000 </r>
       <r>    0.2218    1.0000 </r>
       <r>    0.2677    1.0000 </r>
       <r>    0.2717    1.0000 </r>
       <r>    0.2822    1.0000 </r>
       <r>    0.2971    1.0000 </r>
       <r>    0.3443    1.0000 </r>
       <r>    0.3900    1.0000 </r>
       <r>    0.4888    0.9999 </r>
       <r>    0.5205    0.9999 </r>
       <r>    0.5249    0.9999 </r>
       <r>    0.5401    0.9999 </r>
       <r>    0.5677    0.9998 </r>
       <r>    0.5766    0.9998 </r>
       <r>    0.6072    0.9998 </r>
       <r>    0.6476    0.9997 </r>
       <r>    0.6684    0.9996 </r>
       <r>    0.6898    0.9995 </r>
       <r>    0.7206    0.9993 </r>
       <r>    0.7244    0.9993 </r>
       <r>    0.7393    0.9991 </r>
       <r>    0.7846    0.9987 </r>
       <r>    0.8030    0.9984 </r>
       <r>    0.8320    0.9979 </r>
       <r>    0.8364    0.9978 </r>
       <r>    0.8468    0.9975 </r>
       <r>    0.8567    0.9972 </r>
       <r>    0.8754    0.9967 </r>
       <r>    0.8790    0.9966 </r>
       <r>    0.9025    0.9957 </r>
       <r>    0.9250    0.9946 </r>
       <r>    0.9559    0.9926 </r>
       <r>    0.9681    0.9917 </r>
       <r>    0.9764    0.9910 </r>
       <r>    0.9805    0.9906 </r>
       <r>    1.0218    0.9858 </r>
       <r>    1.0547    0.9804 </r>
       <r>    1.0749    0.9761 </r>
       <r>    1.1315    0.9587 </r>
       <r>    1.1427    0.9540 </r>
       <r>    1.1452    0.9530 </r>
       <r>    1.1640    0.9438 </r>
       <r>    1.1781    0.9358 </r>
       <r>    1.2022    0.9197 </r>
       <r>    1.2148    0.9099 </r>
       <r>    1.2345    0.8924 </r>
       <r>    1.2404    0.8866 </r>
       <r>    1.2489    0.8777 </r>
       <r>    1.2698    0.8535 </r>
       <r>    1.2759    0.8457 </r>
       <r>    1.2909    0.8252 </r>
       <r>    1.4145    0.5783 </r>
       <r>    1.4836    0.4072 </r>
       <r>    1.4992    0.3702 </r>
       <r>    1.5278    0.3063 </r>
       <r>    1.5355    0.2902 </r>
       <r>    1.5479    0.2653 </r>
       <r>    1.5773    0.2120 </r>
       <r>    1.8440    0.0183 </r>
       <r>    2.1613    0.0008 </r>
       <r>    2.2665    0.0003 </r>
       <r>    2.2920    0.0002 </r>
       <r>    2.4493    0.0000 </r>
       <r>    2.5171    0.0000 </r>
       <r>    2.5792    0.0000 </r>
       <r>    3.6677    0.0000 </r>
       <r>    4.4105    0.0000 </r>
       <r>    4.5111    0.0000 </r>
       <r>    4.6722    0.0000 </r>
       <r>    4.8441    0.0000 </r>
       <r>    4.9601    0.0000 </r>
       <r>    5.5565    0.0000 </r>
       <r>    5.7529    0.0000 </r>
       <r>    5.7738    0.0000 </r>
       <r>    6.1744    0.0000 </r>
       <r>    6.2457    0.0000 </r>
       <r>    6.2508    0.0000 </r>
       <r>    6.6177    0.0000 </r>
       <r>    6.7131    0.0000 </r>
       <r>    6.7575    0.0000 </r>
       <r>    7.0505    0.0000 </r>
      </set>
      <set comment="kpoint 2">
       <r>  -12.3741    1.0000 </r>
       <r>   -8.6673    1.0000 </r>
       <r>   -7.7966    1.0000 </r>
       <r>   -6.4794    1.0000 </r>
       <r>   -5.5073    1.0000 </r>
       <r>   -5.3942    1.0000 </r>
       <r>   -5.3904    1.0000 </r>
       <r>   -5.3655    1.0000 </r>
       <r>   -5.2886    1.0000 </r>
       <r>   -5.2361    1.0000 </r>
       <r>   -5.2304    1.0000 </r>
       <r>   -5.1921    1.0000 </r>
       <r>   -4.7738    1.0000 </r>
       <r>   -4.7532    1.0000 </r>
       <r>   -4.7293    1.0000 </r>
       <r>   -4.7271    1.0000 </r>
       <r>   -4.7158    1.0000 </r>
       <r>   -4.7081    1.0000 </r>
       <r>   -4.6906    1.0000 </r>
       <r>   -4.2885    1.0000 </r>
       <r>   -4.2522    1.0000 </r>
       <r>   -4.2357    1.0000 </r>
       <r>   -4.2258    1.0000 </r>
       <r>   -4.2048    1.0000 </r>
       <r>   -4.2012    1.0000 </r>
       <r>   -4.1428    1.0000 </r>
       <r>   -4.0916    1.0000 </r>
       <r>   -4.0529    1.0000 </r>
       <r>   -4.0029    1.0000 </r>
       <r>   -3.9339    1.0000 </r>
       <r>   -3.9115    1.0000 </r>
       <r>   -3.8634    1.0000 </r>
       <r>   -3.8520    1.0000 </r>
       <r>   -3.8332    1.0000 </r>
       <r>   -3.8116    1.0000 </r>
       <r>   -3.7946    1.0000 </r>
       <r>   -3.7809    1.0000 </r>
       <r>   -3.7630    1.0000 </r>
       <r>   -3.7586    1.0000 </r>
       <r>   -3.6993    1.0000 </r>
       <r>   -3.6846    1.0000 </r>
       <r>   -3.6631    1.0000 </r>
       <r>   -3.6038    1.0000 </r>
       <r>   -3.5834    1.0000 </r>
       <r>   -3.2356    1.0000 </r>
       <r>   -3.1575    1.0000 </r>
       <r>   -3.1513    1.0000 </r>
       <r>   -3.1350    1.0000 </r>
       <r>   -3.1168    1.0000 </r>
       <r>   -3.1081    1.0000 </r>
       <r>   -3.0823    1.0000 </r>
       <r>   -3.0353    1.0000 </r>
       <r>   -3.0052    1.0000 </r>
       <r>   -2.9474    1.0000 </r>
       <r>   -2.9187    1.0000 </r>
       <r>   -2.8771    1.0000 </r>
       <r>   -2.8694    1.0000 </r>
       <r>   -2.8073    1.0000 </r>
       <r>   -2.7907    1.0000 </r>
       <r>   -2.3935    1.0000 </r>
       <r>   -2.3586    1.0000 </r>
       <r>   -2.2883    1.0000 </r>
       <r>   -2.2742    1.0000 </r>
       <r>   -2.2677    1.0000 </r>
       <r>   -2.2169    1.0000 </r>
       <r>   -2.2010    1.0000 </r>
       <r>   -2.1921    1.0000 </r>
       <r>   -2.1766    1.0000 </r>
       <r>   -2.1694    1.0000 </r>
       <r>   -2.1400    1.0000 </r>
       <r>   -2.1134    1.0000 </r>
       <r>   -2.1021    1.0000 </r>
       <r>   -2.0894    1.0000 </r>
       <r>   -2.0484    1.0000 </r>
       <r>   -2.0415    1.0000 </r>
       <r>   -2.0324    1.0000 </r>
       <r>   -2.0076    1.0000 </r>
       <r>   -1.9515    1.0000 </r>
       <r>   -1.9489    1.0000 </r>
       <r>   -1.9321    1.0000 </r>
       <r>   -1.9156    1.0000 </r>
       <r>   -1.8986    1.0000 </r>
       <r>   -1.8510    1.0000 </r>
       <r>   -1.8261    1.0000 </r>
       <r>   -1.7871    1.0000 </r>
       <r>   -1.7739    1.0000 </r>
       <r>   -1.7593    1.0000 </r>
       <r>   -1.7351    1.0000 </r>
       <r>   -1.6441    1.0000 </r>
       <r>   -1.6254    1.0000 </r>
       <r>   -1.6147    1.0000 </r>
       <r>   -1.5755    1.0000 </r>
       <r>   -1.5637    1.0000 </r>
       <r>   -1.5318    1.0000 </r>
       <r>   -1.5248    1.0000 </r>
       <r>   -1.5048    1.0000 </r>
       <r>   -1.4876    1.0000 </r>
       <r>   -1.4716    1.0000 </r>
       <r>   -1.4428    1.0000 </r>
       <r>   -1.4143    1.0000 </r>
       <r>   -1.3881    1.0000 </r>
       <r>   -1.3800    1.0000 </r>
       <r>   -1.3606    1.0000 </r>
       <r>   -1.2873    1.0000 </r>
       <r>   -1.2546    1.0000 </r>
       <r>   -1.2384    1.0000 </r>
       <r>   -1.2366    1.0000 </r>
       <r>   -1.2210    1.0000 </r>
       <r>   -1.1914    1.0000 </r>
       <r>   -1.1760    1.0000 </r>
       <r>   -1.1585    1.0000 </r>
       <r>   -1.0912    1.0000 </r>
       <r>   -1.0511    1.0000 </r>
       <r>   -0.9181    1.0000 </r>
       <r>   -0.8602    1.0000 </r>
       <r>   -0.8202    1.0000 </r>
       <r>   -0.8081    1.0000 </r>
       <r>   -0.7499    1.0000 </r>
       <r>   -0.7049    1.0000 </r>
       <r>   -0.6459    1.0000 </r>
       <r>   -0.6331    1.0000 </r>
       <r>   -0.6242    1.0000 </r>
       <r>   -0.6073    1.0000 </r>
       <r>   -0.5807    1.0000 </r>
       <r>   -0.5659    1.0000 </r>
       <r>   -0.5402    1.0000 </r>
       <r>   -0.4656    1.0000 </r>
       <r>   -0.4571    1.0000 </r>
       <r>   -0.4083    1.0000 </r>
       <r>   -0.3921    1.0000 </r>
       <r>   -0.2123    1.0000 </r>
       <r>   -0.1945    1.0000 </r>
       <r>   -0.1761    1.0000 </r>
       <r>   -0.1047    1.0000 </r>
       <r>   -0.0917    1.0000 </r>
       <r>   -0.0812    1.0000 </r>
       <r>   -0.0625    1.0000 </r>
       <r>   -0.0590    1.0000 </r>
       <r>   -0.0454    1.0000 </r>
       <r>   -0.0316    1.0000 </r>
       <r>    0.0594    1.0000 </r>
       <r>    0.0639    1.0000 </r>
       <r>    0.1028    1.0000 </r>
       <r>    0.1237    1.0000 </r>
       <r>    0.1958    1.0000 </r>
       <r>    0.2238    1.0000 </r>
       <r>    0.2673    1.0000 </r>
       <r>    0.2723    1.0000 </r>
       <r>    0.2844    1.0000 </r>
       <r>    0.2966    1.0000 </r>
       <r>    0.3433    1.0000 </r>
       <r>    0.3882    1.0000 </r>
       <r>    0.4873    0.9999 </r>
       <r>    0.5192    0.9999 </r>
       <r>    0.5284    0.9999 </r>
       <r>    0.5367    0.9999 </r>
       <r>    0.5674    0.9998 </r>
       <r>    0.5766    0.9998 </r>
       <r>    0.6135    0.9998 </r>
       <r>    0.6477    0.9997 </r>
       <r>    0.6777    0.9995 </r>
       <r>    0.6886    0.9995 </r>
       <r>    0.7178    0.9993 </r>
       <r>    0.7260    0.9993 </r>
       <r>    0.7377    0.9992 </r>
       <r>    0.7833    0.9987 </r>
       <r>    0.7972    0.9985 </r>
       <r>    0.8333    0.9978 </r>
       <r>    0.8368    0.9977 </r>
       <r>    0.8461    0.9975 </r>
       <r>    0.8563    0.9973 </r>
       <r>    0.8734    0.9968 </r>
       <r>    0.8773    0.9966 </r>
       <r>    0.9018    0.9957 </r>
       <r>    0.9212    0.9948 </r>
       <r>    0.9577    0.9925 </r>
       <r>    0.9660    0.9918 </r>
       <r>    0.9789    0.9907 </r>
       <r>    0.9841    0.9902 </r>
       <r>    1.0213    0.9859 </r>
       <r>    1.0546    0.9804 </r>
       <r>    1.0735    0.9765 </r>
       <r>    1.1297    0.9594 </r>
       <r>    1.1433    0.9538 </r>
       <r>    1.1454    0.9528 </r>
       <r>    1.1638    0.9439 </r>
       <r>    1.1823    0.9332 </r>
       <r>    1.2026    0.9194 </r>
       <r>    1.2132    0.9112 </r>
       <r>    1.2346    0.8923 </r>
       <r>    1.2403    0.8867 </r>
       <r>    1.2485    0.8782 </r>
       <r>    1.2707    0.8525 </r>
       <r>    1.2740    0.8481 </r>
       <r>    1.3017    0.8090 </r>
       <r>    1.4056    0.5997 </r>
       <r>    1.4855    0.4026 </r>
       <r>    1.4972    0.3747 </r>
       <r>    1.5300    0.3017 </r>
       <r>    1.5352    0.2908 </r>
       <r>    1.5451    0.2708 </r>
       <r>    1.5757    0.2148 </r>
       <r>    1.8476    0.0177 </r>
       <r>    2.1547    0.0008 </r>
       <r>    2.2587    0.0003 </r>
       <r>    2.3034    0.0002 </r>
       <r>    2.4507    0.0000 </r>
       <r>    2.5144    0.0000 </r>
       <r>    2.5818    0.0000 </r>
       <r>    3.6682    0.0000 </r>
       <r>    4.4164    0.0000 </r>
       <r>    4.5075    0.0000 </r>
       <r>    4.6681    0.0000 </r>
       <r>    4.8407    0.0000 </r>
       <r>    4.9636    0.0000 </r>
       <r>    5.5586    0.0000 </r>
       <r>    5.7531    0.0000 </r>
       <r>    5.7748    0.0000 </r>
       <r>    6.1658    0.0000 </r>
       <r>    6.2434    0.0000 </r>
       <r>    6.2595    0.0000 </r>
       <r>    6.6155    0.0000 </r>
       <r>    6.6385    0.0000 </r>
       <r>    6.7519    0.0000 </r>
       <r>    6.8422    0.0000 </r>
      </set>
      <set comment="kpoint 3">
       <r>  -12.3741    1.0000 </r>
       <r>   -8.6673    1.0000 </r>
       <r>   -7.7966    1.0000 </r>
       <r>   -6.4794    1.0000 </r>
       <r>   -5.5132    1.0000 </r>
       <r>   -5.3921    1.0000 </r>
       <r>   -5.3860    1.0000 </r>
       <r>   -5.3653    1.0000 </r>
       <r>   -5.2886    1.0000 </r>
       <r>   -5.2331    1.0000 </r>
       <r>   -5.2264    1.0000 </r>
       <r>   -5.1993    1.0000 </r>
       <r>   -4.7663    1.0000 </r>
       <r>   -4.7501    1.0000 </r>
       <r>   -4.7360    1.0000 </r>
       <r>   -4.7281    1.0000 </r>
       <r>   -4.7175    1.0000 </r>
       <r>   -4.7095    1.0000 </r>
       <r>   -4.6917    1.0000 </r>
       <r>   -4.2857    1.0000 </r>
       <r>   -4.2543    1.0000 </r>
       <r>   -4.2350    1.0000 </r>
       <r>   -4.2250    1.0000 </r>
       <r>   -4.2075    1.0000 </r>
       <r>   -4.2002    1.0000 </r>
       <r>   -4.1372    1.0000 </r>
       <r>   -4.1031    1.0000 </r>
       <r>   -4.0507    1.0000 </r>
       <r>   -4.0013    1.0000 </r>
       <r>   -3.9326    1.0000 </r>
       <r>   -3.9093    1.0000 </r>
       <r>   -3.8658    1.0000 </r>
       <r>   -3.8572    1.0000 </r>
       <r>   -3.8341    1.0000 </r>
       <r>   -3.8117    1.0000 </r>
       <r>   -3.7910    1.0000 </r>
       <r>   -3.7798    1.0000 </r>
       <r>   -3.7629    1.0000 </r>
       <r>   -3.7539    1.0000 </r>
       <r>   -3.7006    1.0000 </r>
       <r>   -3.6820    1.0000 </r>
       <r>   -3.6634    1.0000 </r>
       <r>   -3.6084    1.0000 </r>
       <r>   -3.5819    1.0000 </r>
       <r>   -3.2385    1.0000 </r>
       <r>   -3.1592    1.0000 </r>
       <r>   -3.1534    1.0000 </r>
       <r>   -3.1307    1.0000 </r>
       <r>   -3.1181    1.0000 </r>
       <r>   -3.0994    1.0000 </r>
       <r>   -3.0821    1.0000 </r>
       <r>   -3.0376    1.0000 </r>
       <r>   -2.9995    1.0000 </r>
       <r>   -2.9610    1.0000 </r>
       <r>   -2.9152    1.0000 </r>
       <r>   -2.8771    1.0000 </r>
       <r>   -2.8665    1.0000 </r>
       <r>   -2.8085    1.0000 </r>
       <r>   -2.7901    1.0000 </r>
       <r>   -2.3881    1.0000 </r>
       <r>   -2.3626    1.0000 </r>
       <r>   -2.2800    1.0000 </r>
       <r>   -2.2732    1.0000 </r>
       <r>   -2.2629    1.0000 </r>
       <r>   -2.2286    1.0000 </r>
       <r>   -2.1988    1.0000 </r>
       <r>   -2.1924    1.0000 </r>
       <r>   -2.1759    1.0000 </r>
       <r>   -2.1703    1.0000 </r>
       <r>   -2.1390    1.0000 </r>
       <r>   -2.1111    1.0000 </r>
       <r>   -2.1032    1.0000 </r>
       <r>   -2.0933    1.0000 </r>
       <r>   -2.0477    1.0000 </r>
       <r>   -2.0416    1.0000 </r>
       <r>   -2.0268    1.0000 </r>
       <r>   -2.0082    1.0000 </r>
       <r>   -1.9549    1.0000 </r>
       <r>   -1.9458    1.0000 </r>
       <r>   -1.9274    1.0000 </r>
       <r>   -1.9127    1.0000 </r>
       <r>   -1.9043    1.0000 </r>
       <r>   -1.8615    1.0000 </r>
       <r>   -1.8408    1.0000 </r>
       <r>   -1.7886    1.0000 </r>
       <r>   -1.7649    1.0000 </r>
       <r>   -1.7540    1.0000 </r>
       <r>   -1.7295    1.0000 </r>
       <r>   -1.6537    1.0000 </r>
       <r>   -1.6192    1.0000 </r>
       <r>   -1.6088    1.0000 </r>
       <r>   -1.5759    1.0000 </r>
       <r>   -1.5621    1.0000 </r>
       <r>   -1.5395    1.0000 </r>
       <r>   -1.5251    1.0000 </r>
       <r>   -1.5108    1.0000 </r>
       <r>   -1.4836    1.0000 </r>
       <r>   -1.4722    1.0000 </r>
       <r>   -1.4452    1.0000 </r>
       <r>   -1.4155    1.0000 </r>
       <r>   -1.3880    1.0000 </r>
       <r>   -1.3793    1.0000 </r>
       <r>   -1.3571    1.0000 </r>
       <r>   -1.2772    1.0000 </r>
       <r>   -1.2590    1.0000 </r>
       <r>   -1.2381    1.0000 </r>
       <r>   -1.2369    1.0000 </r>
       <r>   -1.2171    1.0000 </r>
       <r>   -1.1923    1.0000 </r>
       <r>   -1.1815    1.0000 </r>
       <r>   -1.1653    1.0000 </r>
       <r>   -1.0940    1.0000 </r>
       <r>   -1.0458    1.0000 </r>
       <r>   -0.9133    1.0000 </r>
       <r>   -0.8607    1.0000 </r>
       <r>   -0.8226    1.0000 </r>
       <r>   -0.8044    1.0000 </r>
       <r>   -0.7454    1.0000 </r>
       <r>   -0.7045    1.0000 </r>
       <r>   -0.6442    1.0000 </r>
       <r>   -0.6329    1.0000 </r>
       <r>   -0.6231    1.0000 </r>
       <r>   -0.6060    1.0000 </r>
       <r>   -0.5819    1.0000 </r>
       <r>   -0.5664    1.0000 </r>
       <r>   -0.5437    1.0000 </r>
       <r>   -0.4675    1.0000 </r>
       <r>   -0.4648    1.0000 </r>
       <r>   -0.4066    1.0000 </r>
       <r>   -0.3918    1.0000 </r>
       <r>   -0.2128    1.0000 </r>
       <r>   -0.1944    1.0000 </r>
       <r>   -0.1785    1.0000 </r>
       <r>   -0.1057    1.0000 </r>
       <r>   -0.0887    1.0000 </r>
       <r>   -0.0871    1.0000 </r>
       <r>   -0.0652    1.0000 </r>
       <r>   -0.0539    1.0000 </r>
       <r>   -0.0432    1.0000 </r>
       <r>   -0.0295    1.0000 </r>
       <r>    0.0560    1.0000 </r>
       <r>    0.0639    1.0000 </r>
       <r>    0.0998    1.0000 </r>
       <r>    0.1213    1.0000 </r>
       <r>    0.1973    1.0000 </r>
       <r>    0.2226    1.0000 </r>
       <r>    0.2659    1.0000 </r>
       <r>    0.2721    1.0000 </r>
       <r>    0.2860    1.0000 </r>
       <r>    0.2971    1.0000 </r>
       <r>    0.3450    1.0000 </r>
       <r>    0.3907    1.0000 </r>
       <r>    0.4918    0.9999 </r>
       <r>    0.5207    0.9999 </r>
       <r>    0.5244    0.9999 </r>
       <r>    0.5392    0.9999 </r>
       <r>    0.5676    0.9998 </r>
       <r>    0.5760    0.9998 </r>
       <r>    0.6112    0.9998 </r>
       <r>    0.6469    0.9997 </r>
       <r>    0.6753    0.9996 </r>
       <r>    0.6879    0.9995 </r>
       <r>    0.7186    0.9993 </r>
       <r>    0.7249    0.9993 </r>
       <r>    0.7410    0.9991 </r>
       <r>    0.7851    0.9987 </r>
       <r>    0.7965    0.9985 </r>
       <r>    0.8315    0.9979 </r>
       <r>    0.8343    0.9978 </r>
       <r>    0.8464    0.9975 </r>
       <r>    0.8560    0.9973 </r>
       <r>    0.8747    0.9967 </r>
       <r>    0.8799    0.9965 </r>
       <r>    0.9040    0.9956 </r>
       <r>    0.9237    0.9946 </r>
       <r>    0.9538    0.9928 </r>
       <r>    0.9663    0.9918 </r>
       <r>    0.9796    0.9907 </r>
       <r>    0.9849    0.9902 </r>
       <r>    1.0221    0.9858 </r>
       <r>    1.0556    0.9802 </r>
       <r>    1.0749    0.9761 </r>
       <r>    1.1325    0.9583 </r>
       <r>    1.1434    0.9538 </r>
       <r>    1.1456    0.9528 </r>
       <r>    1.1621    0.9448 </r>
       <r>    1.1755    0.9373 </r>
       <r>    1.2015    0.9203 </r>
       <r>    1.2097    0.9140 </r>
       <r>    1.2335    0.8934 </r>
       <r>    1.2376    0.8894 </r>
       <r>    1.2493    0.8774 </r>
       <r>    1.2746    0.8474 </r>
       <r>    1.2768    0.8445 </r>
       <r>    1.2921    0.8234 </r>
       <r>    1.4185    0.5685 </r>
       <r>    1.4808    0.4139 </r>
       <r>    1.5003    0.3675 </r>
       <r>    1.5276    0.3067 </r>
       <r>    1.5359    0.2893 </r>
       <r>    1.5484    0.2643 </r>
       <r>    1.5783    0.2104 </r>
       <r>    1.8456    0.0181 </r>
       <r>    2.1591    0.0008 </r>
       <r>    2.2647    0.0003 </r>
       <r>    2.2979    0.0002 </r>
       <r>    2.4466    0.0000 </r>
       <r>    2.5123    0.0000 </r>
       <r>    2.5830    0.0000 </r>
       <r>    3.6678    0.0000 </r>
       <r>    4.4134    0.0000 </r>
       <r>    4.5108    0.0000 </r>
       <r>    4.6728    0.0000 </r>
       <r>    4.8362    0.0000 </r>
       <r>    4.9654    0.0000 </r>
       <r>    5.5561    0.0000 </r>
       <r>    5.7522    0.0000 </r>
       <r>    5.7745    0.0000 </r>
       <r>    6.1690    0.0000 </r>
       <r>    6.2466    0.0000 </r>
       <r>    6.2592    0.0000 </r>
       <r>    6.6085    0.0000 </r>
       <r>    6.7399    0.0000 </r>
       <r>    6.7861    0.0000 </r>
       <r>    6.9066    0.0000 </r>
      </set>
      <set comment="kpoint 4">
       <r>  -12.3740    1.0000 </r>
       <r>   -8.6670    1.0000 </r>
       <r>   -7.6406    1.0000 </r>
       <r>   -6.3261    1.0000 </r>
       <r>   -5.8774    1.0000 </r>
       <r>   -5.6822    1.0000 </r>
       <r>   -5.2415    1.0000 </r>
       <r>   -5.2097    1.0000 </r>
       <r>   -5.1437    1.0000 </r>
       <r>   -5.0958    1.0000 </r>
       <r>   -5.0783    1.0000 </r>
       <r>   -5.0521    1.0000 </r>
       <r>   -4.8946    1.0000 </r>
       <r>   -4.7968    1.0000 </r>
       <r>   -4.7755    1.0000 </r>
       <r>   -4.7194    1.0000 </r>
       <r>   -4.6894    1.0000 </r>
       <r>   -4.5983    1.0000 </r>
       <r>   -4.5810    1.0000 </r>
       <r>   -4.3252    1.0000 </r>
       <r>   -4.2713    1.0000 </r>
       <r>   -4.2194    1.0000 </r>
       <r>   -4.1782    1.0000 </r>
       <r>   -4.1503    1.0000 </r>
       <r>   -4.1275    1.0000 </r>
       <r>   -4.1178    1.0000 </r>
       <r>   -4.0910    1.0000 </r>
       <r>   -4.0708    1.0000 </r>
       <r>   -4.0416    1.0000 </r>
       <r>   -3.9906    1.0000 </r>
       <r>   -3.9763    1.0000 </r>
       <r>   -3.9432    1.0000 </r>
       <r>   -3.9248    1.0000 </r>
       <r>   -3.8821    1.0000 </r>
       <r>   -3.8469    1.0000 </r>
       <r>   -3.8322    1.0000 </r>
       <r>   -3.7880    1.0000 </r>
       <r>   -3.7267    1.0000 </r>
       <r>   -3.6191    1.0000 </r>
       <r>   -3.5831    1.0000 </r>
       <r>   -3.5450    1.0000 </r>
       <r>   -3.5292    1.0000 </r>
       <r>   -3.4925    1.0000 </r>
       <r>   -3.4681    1.0000 </r>
       <r>   -3.2940    1.0000 </r>
       <r>   -3.2690    1.0000 </r>
       <r>   -3.2168    1.0000 </r>
       <r>   -3.2063    1.0000 </r>
       <r>   -3.1781    1.0000 </r>
       <r>   -3.1384    1.0000 </r>
       <r>   -3.0879    1.0000 </r>
       <r>   -3.0461    1.0000 </r>
       <r>   -2.9831    1.0000 </r>
       <r>   -2.9075    1.0000 </r>
       <r>   -2.8651    1.0000 </r>
       <r>   -2.8464    1.0000 </r>
       <r>   -2.8258    1.0000 </r>
       <r>   -2.8060    1.0000 </r>
       <r>   -2.7805    1.0000 </r>
       <r>   -2.6074    1.0000 </r>
       <r>   -2.5941    1.0000 </r>
       <r>   -2.4418    1.0000 </r>
       <r>   -2.3971    1.0000 </r>
       <r>   -2.3628    1.0000 </r>
       <r>   -2.3497    1.0000 </r>
       <r>   -2.3255    1.0000 </r>
       <r>   -2.2959    1.0000 </r>
       <r>   -2.2704    1.0000 </r>
       <r>   -2.2402    1.0000 </r>
       <r>   -2.2309    1.0000 </r>
       <r>   -2.1925    1.0000 </r>
       <r>   -2.1409    1.0000 </r>
       <r>   -2.1289    1.0000 </r>
       <r>   -2.1061    1.0000 </r>
       <r>   -2.0880    1.0000 </r>
       <r>   -2.0692    1.0000 </r>
       <r>   -2.0378    1.0000 </r>
       <r>   -2.0055    1.0000 </r>
       <r>   -1.9980    1.0000 </r>
       <r>   -1.9036    1.0000 </r>
       <r>   -1.8918    1.0000 </r>
       <r>   -1.8558    1.0000 </r>
       <r>   -1.8318    1.0000 </r>
       <r>   -1.7866    1.0000 </r>
       <r>   -1.7775    1.0000 </r>
       <r>   -1.7720    1.0000 </r>
       <r>   -1.7408    1.0000 </r>
       <r>   -1.7219    1.0000 </r>
       <r>   -1.6933    1.0000 </r>
       <r>   -1.6385    1.0000 </r>
       <r>   -1.6229    1.0000 </r>
       <r>   -1.6091    1.0000 </r>
       <r>   -1.5798    1.0000 </r>
       <r>   -1.5650    1.0000 </r>
       <r>   -1.5600    1.0000 </r>
       <r>   -1.5310    1.0000 </r>
       <r>   -1.5168    1.0000 </r>
       <r>   -1.4984    1.0000 </r>
       <r>   -1.4842    1.0000 </r>
       <r>   -1.4534    1.0000 </r>
       <r>   -1.4346    1.0000 </r>
       <r>   -1.3863    1.0000 </r>
       <r>   -1.3519    1.0000 </r>
       <r>   -1.3317    1.0000 </r>
       <r>   -1.2989    1.0000 </r>
       <r>   -1.2811    1.0000 </r>
       <r>   -1.2658    1.0000 </r>
       <r>   -1.2496    1.0000 </r>
       <r>   -1.2272    1.0000 </r>
       <r>   -1.1940    1.0000 </r>
       <r>   -1.1633    1.0000 </r>
       <r>   -1.1310    1.0000 </r>
       <r>   -1.1176    1.0000 </r>
       <r>   -1.0825    1.0000 </r>
       <r>   -1.0280    1.0000 </r>
       <r>   -1.0032    1.0000 </r>
       <r>   -0.9446    1.0000 </r>
       <r>   -0.9073    1.0000 </r>
       <r>   -0.8680    1.0000 </r>
       <r>   -0.8017    1.0000 </r>
       <r>   -0.7306    1.0000 </r>
       <r>   -0.6977    1.0000 </r>
       <r>   -0.6526    1.0000 </r>
       <r>   -0.6195    1.0000 </r>
       <r>   -0.5914    1.0000 </r>
       <r>   -0.5719    1.0000 </r>
       <r>   -0.5558    1.0000 </r>
       <r>   -0.5145    1.0000 </r>
       <r>   -0.4828    1.0000 </r>
       <r>   -0.4439    1.0000 </r>
       <r>   -0.3755    1.0000 </r>
       <r>   -0.3177    1.0000 </r>
       <r>   -0.2374    1.0000 </r>
       <r>   -0.1748    1.0000 </r>
       <r>   -0.1624    1.0000 </r>
       <r>   -0.1443    1.0000 </r>
       <r>   -0.0975    1.0000 </r>
       <r>   -0.0780    1.0000 </r>
       <r>   -0.0483    1.0000 </r>
       <r>   -0.0369    1.0000 </r>
       <r>   -0.0010    1.0000 </r>
       <r>    0.0383    1.0000 </r>
       <r>    0.1255    1.0000 </r>
       <r>    0.1589    1.0000 </r>
       <r>    0.1803    1.0000 </r>
       <r>    0.2050    1.0000 </r>
       <r>    0.2371    1.0000 </r>
       <r>    0.2594    1.0000 </r>
       <r>    0.2796    1.0000 </r>
       <r>    0.2949    1.0000 </r>
       <r>    0.3139    1.0000 </r>
       <r>    0.3416    1.0000 </r>
       <r>    0.3529    1.0000 </r>
       <r>    0.3929    1.0000 </r>
       <r>    0.4189    1.0000 </r>
       <r>    0.4470    1.0000 </r>
       <r>    0.4598    0.9999 </r>
       <r>    0.5058    0.9999 </r>
       <r>    0.5245    0.9999 </r>
       <r>    0.5541    0.9999 </r>
       <r>    0.5891    0.9998 </r>
       <r>    0.6466    0.9997 </r>
       <r>    0.6836    0.9995 </r>
       <r>    0.7141    0.9993 </r>
       <r>    0.7671    0.9989 </r>
       <r>    0.7915    0.9986 </r>
       <r>    0.8447    0.9976 </r>
       <r>    0.8725    0.9968 </r>
       <r>    0.8849    0.9964 </r>
       <r>    0.9249    0.9946 </r>
       <r>    0.9505    0.9930 </r>
       <r>    0.9831    0.9903 </r>
       <r>    1.0179    0.9864 </r>
       <r>    1.0391    0.9832 </r>
       <r>    1.0796    0.9750 </r>
       <r>    1.1002    0.9695 </r>
       <r>    1.1388    0.9558 </r>
       <r>    1.1596    0.9461 </r>
       <r>    1.1740    0.9382 </r>
       <r>    1.1979    0.9229 </r>
       <r>    1.2170    0.9081 </r>
       <r>    1.2418    0.8852 </r>
       <r>    1.2640    0.8606 </r>
       <r>    1.2752    0.8467 </r>
       <r>    1.3107    0.7946 </r>
       <r>    1.3509    0.7214 </r>
       <r>    1.3805    0.6583 </r>
       <r>    1.3922    0.6314 </r>
       <r>    1.4194    0.5663 </r>
       <r>    1.4290    0.5426 </r>
       <r>    1.4587    0.4684 </r>
       <r>    1.4773    0.4224 </r>
       <r>    1.5102    0.3448 </r>
       <r>    1.5405    0.2800 </r>
       <r>    1.5885    0.1940 </r>
       <r>    1.6444    0.1209 </r>
       <r>    1.6561    0.1091 </r>
       <r>    1.6743    0.0926 </r>
       <r>    1.7096    0.0669 </r>
       <r>    1.7639    0.0400 </r>
       <r>    1.8416    0.0188 </r>
       <r>    1.9650    0.0055 </r>
       <r>    1.9932    0.0042 </r>
[...]
     <field>integrated</field>
     <set>
      <set comment="spin 1">
       <r>   -13.3741     0.0000     0.0000 </r>
       <r>   -13.3011     0.0000     0.0000 </r>
       <r>   -13.2280     0.0053     0.0004 </r>
       <r>   -13.1550     0.0057     0.0008 </r>
       <r>   -13.0820     0.0119     0.0017 </r>
       <r>   -13.0090     0.0247     0.0035 </r>
       <r>   -12.9360     0.0512     0.0072 </r>
       <r>   -12.8630     0.1056     0.0149 </r>
       <r>   -12.7900     0.2165     0.0307 </r>
       <r>   -12.7169     0.4385     0.0627 </r>
       <r>   -12.6439     0.8660     0.1260 </r>
       <r>   -12.5709     1.6283     0.2449 </r>
       <r>   -12.4979     2.7968     0.4491 </r>
       <r>   -12.4249     4.1314     0.7507 </r>
       <r>   -12.3519     4.9204     1.1100 </r>
       <r>   -12.2788     4.5559     1.4427 </r>
       <r>   -12.2058     3.3345     1.6861 </r>
       <r>   -12.1328     2.0441     1.8354 </r>
       <r>   -12.0598     1.1198     1.9171 </r>
       <r>   -11.9868     0.5760     1.9592 </r>
       <r>   -11.9138     0.2866     1.9801 </r>
       <r>   -11.8408     0.1403     1.9904 </r>
       <r>   -11.7677     0.0681     1.9954 </r>
       <r>   -11.6947     0.0329     1.9978 </r>
       <r>   -11.6217     0.0159     1.9989 </r>
       <r>   -11.5487     0.0000     2.0000 </r>
       <r>   -11.4757     0.0000     2.0000 </r>
       <r>   -11.4027     0.0000     2.0000 </r>
       <r>   -11.3296     0.0000     2.0000 </r>
       <r>   -11.2566     0.0000     2.0000 </r>
       <r>   -11.1836     0.0000     2.0000 </r>
       <r>   -11.1106     0.0000     2.0000 </r>
       <r>   -11.0376     0.0000     2.0000 </r>
       <r>   -10.9646     0.0000     2.0000 </r>
       <r>   -10.8916     0.0000     2.0000 </r>
       <r>   -10.8185     0.0000     2.0000 </r>
       <r>   -10.7455     0.0000     2.0000 </r>
       <r>   -10.6725     0.0000     2.0000 </r>
       <r>   -10.5995     0.0000     2.0000 </r>
       <r>   -10.5265     0.0000     2.0000 </r>
       <r>   -10.4535     0.0000     2.0000 </r>
       <r>   -10.3804     0.0000     2.0000 </r>
       <r>   -10.3074     0.0000     2.0000 </r>
       <r>   -10.2344     0.0000     2.0000 </r>
       <r>   -10.1614     0.0000     2.0000 </r>
       <r>   -10.0884     0.0000     2.0000 </r>
       <r>   -10.0154     0.0000     2.0000 </r>
       <r>    -9.9423     0.0000     2.0000 </r>
       <r>    -9.8693     0.0000     2.0000 </r>
       <r>    -9.7963     0.0000     2.0000 </r>
       <r>    -9.7233     0.0000     2.0000 </r>
       <r>    -9.6503     0.0000     2.0000 </r>
       <r>    -9.5773     0.0000     2.0000 </r>
       <r>    -9.5043     0.0063     2.0005 </r>
       <r>    -9.4312     0.0068     2.0010 </r>
       <r>    -9.3582     0.0140     2.0020 </r>
       <r>    -9.2852     0.0291     2.0041 </r>
       <r>    -9.2122     0.0602     2.0085 </r>
       <r>    -9.1392     0.1241     2.0176 </r>
       <r>    -9.0662     0.2540     2.0361 </r>
       <r>    -8.9931     0.5123     2.0735 </r>
       <r>    -8.9201     1.0033     2.1468 </r>
       <r>    -8.8471     1.8566     2.2823 </r>
       <r>    -8.7741     3.1006     2.5087 </r>
       <r>    -8.7011     4.3868     2.8290 </r>
       <r>    -8.6281     4.9451     3.1901 </r>
       <r>    -8.5551     4.3292     3.5062 </r>
       <r>    -8.4820     3.0287     3.7273 </r>
       <r>    -8.4090     1.8035     3.8590 </r>
       <r>    -8.3360     0.9769     3.9304 </r>
       <r>    -8.2630     0.5099     3.9676 </r>
       <r>    -8.1900     0.2788     3.9879 </r>
       <r>    -8.1170     0.1895     4.0018 </r>
       <r>    -8.0439     0.1974     4.0162 </r>
       <r>    -7.9709     0.2962     4.0378 </r>
       <r>    -7.8979     0.4968     4.0741 </r>
       <r>    -7.8249     0.7881     4.1326 </r>
       <r>    -7.7519     1.1391     4.2157 </r>
       <r>    -7.6789     1.4606     4.3224 </r>
       <r>    -7.6059     1.6949     4.4461 </r>
       <r>    -7.5328     1.8277     4.5796 </r>
       <r>    -7.4598     1.9031     4.7185 </r>
       <r>    -7.3868     1.9783     4.8630 </r>
       <r>    -7.3138     2.0641     5.0137 </r>
       <r>    -7.2408     2.1022     5.1672 </r>
       <r>    -7.1678     2.0779     5.3189 </r>
       <r>    -7.0947     2.0510     5.4686 </r>
       <r>    -7.0217     2.0787     5.6204 </r>
       <r>    -6.9487     2.1763     5.7794 </r>
       <r>    -6.8757     2.3118     5.9482 </r>
       <r>    -6.8027     2.4065     6.1240 </r>
       <r>    -6.7297     2.4491     6.3029 </r>
       <r>    -6.6566     2.5167     6.4868 </r>
       <r>    -6.5836     2.6995     6.6839 </r>
       <r>    -6.5106     3.0490     6.9066 </r>
       <r>    -6.4376     3.5587     7.1665 </r>
       <r>    -6.3646     4.0885     7.4651 </r>
       <r>    -6.2916     4.4612     7.7909 </r>
       <r>    -6.2186     4.6157     8.1280 </r>
       <r>    -6.1455     4.6618     8.4684 </r>
       <r>    -6.0725     4.7310     8.8140 </r>
       <r>    -5.9995     4.8445     9.1678 </r>
       <r>    -5.9265     5.0050     9.5334 </r>
       <r>    -5.8535     5.2798     9.9189 </r>
       <r>    -5.7805     5.6762    10.3334 </r>
       <r>    -5.7074     6.0735    10.7769 </r>
       <r>    -5.6344     6.4167    11.2456 </r>
       <r>    -5.5614     6.8120    11.7431 </r>
       <r>    -5.4884     7.4201    12.2851 </r>
       <r>    -5.4154     8.4337    12.9010 </r>
       <r>    -5.3424    10.0846    13.6376 </r>
       <r>    -5.2694    12.4775    14.5487 </r>
       <r>    -5.1963    15.3753    15.6716 </r>
       <r>    -5.1233    18.2985    17.0077 </r>
       <r>    -5.0503    21.0263    18.5432 </r>
       <r>    -4.9773    23.7279    20.2758 </r>
       <r>    -4.9043    26.7250    22.2275 </r>
       <r>    -4.8313    30.0394    24.4210 </r>
       <r>    -4.7582    33.1199    26.8395 </r>
       <r>    -4.6852    35.0664    29.4002 </r>
       <r>    -4.6122    35.5566    31.9966 </r>
       <r>    -4.5392    35.5791    34.5946 </r>
       <r>    -4.4662    36.5487    37.2635 </r>
       <r>    -4.3932    39.0053    40.1124 </r>
       <r>    -4.3201    42.6665    43.2284 </r>
       <r>    -4.2471    46.8517    46.6504 </r>
       <r>    -4.1741    50.6227    50.3473 </r>
       <r>    -4.1011    53.0215    54.2197 </r>
       <r>    -4.0281    53.6894    58.1406 </r>
       <r>    -3.9551    52.9749    62.0101 </r>
       <r>    -3.8821    51.5325    65.7747 </r>
       <r>    -3.8090    49.6767    69.4030 </r>
       <r>    -3.7360    47.1671    72.8477 </r>
       <r>    -3.6630    43.8960    76.0541 </r>
       <r>    -3.5900    40.3859    79.0041 </r>
       <r>    -3.5170    37.5177    81.7449 </r>
       <r>    -3.4440    36.2593    84.3940 </r>
       <r>    -3.3709    37.3655    87.1248 </r>
       <r>    -3.2979    40.7167    90.0998 </r>
       <r>    -3.2249    44.8843    93.3793 </r>
       <r>    -3.1519    48.0611    96.8903 </r>
       <r>    -3.0789    49.4372   100.5017 </r>
       <r>    -3.0059    49.5827   104.1236 </r>
       <r>    -2.9329    49.5568   107.7440 </r>
       <r>    -2.8598    49.6581   111.3716 </r>
       <r>    -2.7868    49.2977   114.9723 </r>
       <r>    -2.7138    48.0169   118.4796 </r>
       <r>    -2.6408    46.2734   121.8594 </r>
       <r>    -2.5678    45.1476   125.1565 </r>
       <r>    -2.4948    45.7628   128.4994 </r>
       <r>    -2.4217    48.6070   132.0504 </r>
       <r>    -2.3487    52.8921   135.9144 </r>
       <r>    -2.2757    57.4298   140.1100 </r>
       <r>    -2.2027    61.6641   144.6137 </r>
       <r>    -2.1297    65.2461   149.3792 </r>
       <r>    -2.0567    67.7170   154.3257 </r>
       <r>    -1.9837    69.2110   159.3812 </r>
       <r>    -1.9106    70.6778   164.5435 </r>
       <r>    -1.8376    72.7719   169.8585 </r>
       <r>    -1.7646    75.1350   175.3459 </r>
       <r>    -1.6916    76.9580   180.9660 </r>
       <r>    -1.6186    77.9932   186.6625 </r>
       <r>    -1.5456    78.4894   192.3958 </r>
       <r>    -1.4725    78.5007   198.1295 </r>
       <r>    -1.3995    77.7628   203.8095 </r>
       <r>    -1.3265    75.5978   209.3320 </r>
       <r>    -1.2535    71.3995   214.5483 </r>
       <r>    -1.1805    65.5497   219.3363 </r>
       <r>    -1.1075    59.3850   223.6747 </r>
       <r>    -1.0344    54.2111   227.6352 </r>
       <r>    -0.9614    50.6669   231.3380 </r>
       <r>    -0.8884    49.0326   234.9210 </r>
       <r>    -0.8154    49.4739   238.5362 </r>
       <r>    -0.7424    52.0691   242.3409 </r>
       <r>    -0.6694    56.2645   246.4516 </r>
       <r>    -0.5964    60.2580   250.8543 </r>
       <r>    -0.5233    61.7922   255.3693 </r>
       <r>    -0.4503    60.0356   259.7557 </r>
       <r>    -0.3773    56.3605   263.8730 </r>
       <r>    -0.3043    52.9615   267.7418 </r>
       <r>    -0.2313    51.1659   271.4796 </r>
       <r>    -0.1583    51.0042   275.2052 </r>
       <r>    -0.0852    51.8912   278.9955 </r>
       <r>    -0.0122    53.4369   282.8988 </r>
       <r>     0.0608    55.6210   286.9616 </r>
       <r>     0.1338    58.4649   291.2321 </r>
       <r>     0.2068    61.5883   295.7319 </r>
       <r>     0.2798    64.2602   300.4270 </r>
       <r>     0.3528    65.5829   305.2177 </r>
       <r>     0.4259    64.8726   309.9563 </r>
       <r>     0.4989    62.2665   314.5042 </r>
       <r>     0.5719    58.6846   318.7911 </r>
       <r>     0.6449    55.4943   322.8448 </r>
       <r>     0.7179    53.8839   326.7808 </r>
       <r>     0.7909    54.0120   330.7263 </r>
       <r>     0.8640    55.0478   334.7476 </r>
       <r>     0.9370    56.2467   338.8566 </r>
       <r>     1.0100    57.9578   343.0905 </r>
       <r>     1.0830    61.1182   347.5558 </r>
       <r>     1.1560    65.6728   352.3538 </r>
       <r>     1.2290    70.0740   357.4727 </r>
       <r>     1.3020    72.5880   362.7751 </r>
       <r>     1.3751    72.4056   368.0641 </r>
       <r>     1.4481    69.4734   373.1382 </r>
       <r>     1.5211    64.1435   377.8233 </r>
       <r>     1.5941    57.3739   382.0143 </r>
       <r>     1.6671    50.2100   385.6824 </r>
       <r>     1.7401    42.8533   388.8136 </r>
       <r>     1.8132    35.2812   391.3912 </r>
       <r>     1.8862    28.2845   393.4582 </r>
       <r>     1.9592    22.7750   395.1237 </r>
       <r>     2.0322    18.8936   396.5060 </r>
       <r>     2.1052    16.2732   397.6976 </r>
       <r>     2.1782    14.5564   398.7631 </r>
       <r>     2.2513    13.4378   399.7472 </r>
       <r>     2.3243    12.6541   400.6739 </r>
       <r>     2.3973    12.1749   401.5644 </r>
       <r>     2.4703    11.9967   402.4422 </r>
       <r>     2.5433    11.8765   403.3114 </r>
       <r>     2.6163    11.5512   404.1556 </r>
       <r>     2.6893    11.0567   404.9636 </r>
       <r>     2.7624    10.6699   405.7433 </r>
       <r>     2.8354    10.6235   406.5196 </r>
       <r>     2.9084    10.9465   407.3195 </r>
       <r>     2.9814    11.4315   408.1544 </r>
       <r>     3.0544    11.8331   409.0192 </r>
       <r>     3.1274    12.0880   409.9022 </r>
       <r>     3.2005    12.2308   410.7954 </r>
       <r>     3.2735    12.2486   411.6902 </r>
       <r>     3.3465    12.0193   412.5682 </r>
       <r>     3.4195    11.5722   413.4137 </r>
       <r>     3.4925    11.2190   414.2333 </r>
       <r>     3.5655    11.1657   415.0488 </r>
       <r>     3.6385    11.3352   415.8768 </r>
       <r>     3.7116    11.6440   416.7272 </r>
       <r>     3.7846    12.0039   417.6043 </r>
       <r>     3.8576    12.1658   418.4929 </r>
       <r>     3.9306    11.9111   419.3630 </r>
       <r>     4.0036    11.3718   420.1937 </r>
       <r>     4.0766    10.8929   420.9895 </r>
       <r>     4.1497    10.7560   421.7754 </r>
       <r>     4.2227    11.1112   422.5871 </r>
       <r>     4.2957    11.8823   423.4550 </r>
       <r>     4.3687    12.6464   424.3788 </r>
       <r>     4.4417    12.8102   425.3146 </r>
       <r>     4.5147    12.1972   426.2054 </r>
       <r>     4.5878    11.3005   427.0311 </r>
       <r>     4.6608    10.8397   427.8233 </r>
       <r>     4.7338    11.0894   428.6332 </r>
       <r>     4.8068    11.6042   429.4811 </r>
       <r>     4.8798    11.6574   430.3325 </r>
       <r>     4.9528    11.0192   431.1374 </r>
       <r>     5.0258    10.1195   431.8765 </r>
       <r>     5.0989     9.4145   432.5643 </r>
       <r>     5.1719     9.0749   433.2274 </r>
       <r>     5.2449     9.1419   433.8958 </r>
       <r>     5.3179     9.5914   434.5966 </r>
       <r>     5.3909    10.2866   435.3479 </r>
       <r>     5.4639    11.0338   436.1537 </r>
       <r>     5.5370    11.7122   437.0091 </r>
       <r>     5.6100    12.2561   437.9047 </r>
       <r>     5.6830    12.4921   438.8175 </r>
       <r>     5.7560    12.1141   439.7022 </r>
       <r>     5.8290    11.0364   440.5083 </r>
       <r>     5.9020     9.6220   441.2113 </r>
       <r>     5.9750     8.4037   441.8250 </r>
       <r>     6.0481     7.6891   442.3867 </r>
       <r>     6.1211     7.4410   442.9304 </r>
       <r>     6.1941     7.5179   443.4797 </r>
       <r>     6.2671     7.8125   444.0506 </r>
       <r>     6.3401     8.0890   444.6416 </r>
       <r>     6.4131     8.1084   445.2340 </r>
       <r>     6.4862     7.9002   445.8116 </r>
       <r>     6.5592     7.6700   446.3721 </r>
       <r>     6.6322     7.5380   446.9230 </r>
       <r>     6.7052     7.4691   447.4685 </r>
       <r>     6.7782     7.2878   448.0008 </r>
       <r>     6.8512     6.8017   448.4977 </r>
       <r>     6.9242     5.9250   448.9307 </r>
       <r>     6.9973     4.7521   449.2777 </r>
       <r>     7.0703     3.5103   449.5344 </r>
       <r>     7.1433     2.4092   449.7107 </r>
       <r>     7.2163     1.5425   449.8236 </r>
       <r>     7.2893     0.9257   449.8915 </r>
       <r>     7.3623     0.5366   449.9309 </r>
       <r>     7.4354     0.3209   449.9546 </r>
       <r>     7.5084     0.2133   449.9704 </r>
       <r>     7.5814     0.1522   449.9819 </r>
       <r>     7.6544     0.1047   449.9897 </r>
       <r>     7.7274     0.0632   449.9947 </r>
       <r>     7.8004     0.0347   449.9974 </r>
       <r>     7.8735     0.0175   449.9987 </r>
       <r>     7.9465     0.0084   449.9994 </r>
       <r>     8.0195     0.0040   449.9997 </r>
       <r>     8.0925     0.0020   449.9999 </r>
       <r>     8.1655     0.0009   449.9999 </r>
       <r>     8.2385     0.0005   450.0000 </r>
       <r>     8.3115     0.0002   450.0000 </r>
       <r>     8.3846     0.0000   450.0000 </r>
       <r>     8.4576     0.0000   450.0000 </r>
       <r>     8.5306     0.0000   450.0000 </r>
      </set>
     </set>
    </array>
   </total>
  </dos>
 </calculation>
 <structure name="finalpos" >
  <crystal>
   <varray name="basis" >
    <v>       8.42164176       0.00000000       0.00000000 </v>
    <v>       4.21082088       7.29335571       0.00000000 </v>
    <v>       0.00000000       0.00000000      21.87624171 </v>
   </varray>
   <i name="volume">   1343.68315334 </i>
   <varray name="rec_basis" >
    <v>       0.11874169      -0.06855555       0.00000000 </v>
    <v>       0.00000000       0.13711110       0.00000000 </v>
    <v>       0.00000000       0.00000000       0.04571169 </v>
   </varray>
  </crystal>
  <varray name="positions" >
   <v>       0.00000000       0.00000000       0.34283768 </v>
   <v>       0.33333333       0.00000000       0.34283768 </v>
   <v>       0.66666667       0.00000000       0.34283768 </v>
   <v>       0.00000000       0.33333333       0.34283768 </v>
   <v>       0.33333333       0.33333333       0.34283768 </v>
   <v>       0.66666667       0.33333333       0.34283768 </v>
   <v>       0.00000000       0.66666667       0.34283768 </v>
   <v>       0.33333333       0.66666667       0.34283768 </v>
   <v>       0.66666667       0.66666667       0.34283768 </v>
   <v>       0.11111111       0.11111111       0.44761256 </v>
   <v>       0.44444444       0.11111111       0.44761256 </v>
   <v>       0.77777778       0.11111111       0.44761256 </v>
   <v>       0.11111111       0.44444444       0.44761256 </v>
   <v>       0.44444444       0.44444444       0.44761256 </v>
   <v>       0.77777778       0.44444444       0.44761256 </v>
   <v>       0.11111111       0.77777778       0.44761256 </v>
   <v>       0.44444444       0.77777778       0.44761256 </v>
   <v>       0.77777778       0.77777778       0.44761256 </v>
   <v>       0.88788872       0.22371410       0.55084510 </v>
   <v>       0.22250991       0.22487959       0.55256961 </v>
   <v>       0.55162472       0.22511764       0.55273788 </v>
   <v>       0.88825129       0.55691533       0.55104053 </v>
   <v>       0.22274234       0.55395918       0.55282234 </v>
   <v>       0.55420439       0.55703018       0.55110585 </v>
   <v>       0.88785869       0.89037315       0.55095412 </v>
   <v>       0.22121508       0.89024407       0.55090491 </v>
   <v>       0.55434115       0.89078055       0.55107839 </v>
   <v>       0.99749911       0.00302073       0.65600534 </v>
   <v>       0.33063226       0.00257771       0.65594694 </v>
   <v>       0.66470623       0.00267634       0.65609433 </v>
   <v>       0.99723162       0.33633397       0.65591322 </v>
   <v>       0.33146357       0.33601849       0.66765527 </v>
   <v>       0.66486105       0.33615947       0.65596561 </v>
   <v>       0.99733748       0.67000276       0.65608001 </v>
   <v>       0.33045201       0.67004783       0.65611405 </v>
   <v>       0.66422423       0.66995940       0.65595250 </v>
   <v>       0.32314445       0.32920475       0.76333758 </v>
   <v>       0.45009277       0.37890366       0.79630160 </v>
   <v>       0.17830031       0.42423223       0.77428995 </v>
   <v>       0.35513417       0.18833645       0.77349130 </v>
   <v>       0.43634033       0.36614004       0.84612162 </v>
   <v>       0.59503165       0.28702786       0.78447532 </v>
   <v>       0.41659303       0.52075038       0.78725812 </v>
  </varray>
  <varray name="selective"  type="logical" >
   <v type="logical" >  F  F  F </v>
   <v type="logical" >  F  F  F </v>
   <v type="logical" >  F  F  F </v>
   <v type="logical" >  F  F  F </v>
   <v type="logical" >  F  F  F </v>
   <v type="logical" >  F  F  F </v>
   <v type="logical" >  F  F  F </v>
   <v type="logical" >  F  F  F </v>
   <v type="logical" >  F  F  F </v>
   <v type="logical" >  F  F  F </v>
   <v type="logical" >  F  F  F </v>
   <v type="logical" >  F  F  F </v>
   <v type="logical" >  F  F  F </v>
   <v type="logical" >  F  F  F </v>
   <v type="logical" >  F  F  F </v>
   <v type="logical" >  F  F  F </v>
   <v type="logical" >  F  F  F </v>
   <v type="logical" >  F  F  F </v>
   <v type="logical" >  T  T  T </v>
   <v type="logical" >  T  T  T </v>
   <v type="logical" >  T  T  T </v>
   <v type="logical" >  T  T  T </v>
   <v type="logical" >  T  T  T </v>
   <v type="logical" >  T  T  T </v>
   <v type="logical" >  T  T  T </v>
   <v type="logical" >  T  T  T </v>
   <v type="logical" >  T  T  T </v>
   <v type="logical" >  T  T  T </v>
   <v type="logical" >  T  T  T </v>
   <v type="logical" >  T  T  T </v>
   <v type="logical" >  T  T  T </v>
   <v type="logical" >  T  T  T </v>
   <v type="logical" >  T  T  T </v>
   <v type="logical" >  T  T  T </v>
   <v type="logical" >  T  T  T </v>
   <v type="logical" >  T  T  T </v>
   <v type="logical" >  T  T  T </v>
   <v type="logical" >  T  T  T </v>
   <v type="logical" >  T  T  T </v>
   <v type="logical" >  T  T  T </v>
   <v type="logical" >  T  T  T </v>
   <v type="logical" >  T  T  T </v>
   <v type="logical" >  T  T  T </v>
  </varray>
  <nose>
   <v>      -3.00000000       0.00000000       0.00010000       0.00010000 </v>
  </nose>
 </structure>
</modeling>
