 running on   20 total cores
 distrk:  each k-point on   20 cores,    1 groups
 distr:  one band on    4 cores,    5 groups
 using from now: INCAR     
 vasp.5.4.1 24Jun15 (build Oct 10 2016 12:42:00) complex                        
  
 POSCAR found :  3 types and      43 ions
 scaLAPACK will be used
 LDA part: xc-table for Pade appr. of Perdew
 POSCAR found :  3 types and      43 ions
 POSCAR, INCAR and KPOINTS ok, starting setup
 WARNING: small aliasing (wrap around) errors must be expected
 FFT: planning ...
 WAVECAR not read
 entering main loop
       N       E                     dE             d eps       ncg     rms          rms(c)
DAV:   1     0.218746563041E+04    0.21875E+04   -0.14762E+05 24360   0.118E+03
DAV:   2    -0.972895911220E+02   -0.22848E+04   -0.21180E+04 28180   0.269E+02
DAV:   3    -0.258304046541E+03   -0.16101E+03   -0.14606E+03 29470   0.644E+01
DAV:   4    -0.265347158578E+03   -0.70431E+01   -0.68206E+01 31320   0.130E+01    0.624E+01
RMM:   5    -0.252499667737E+03    0.12847E+02   -0.53327E+01 25949   0.145E+01    0.440E+01
RMM:   6    -0.293354134551E+03   -0.40854E+02   -0.79873E+01 25863   0.136E+01    0.562E+01
RMM:   7    -0.252047054400E+03    0.41307E+02   -0.26738E+01 25349   0.865E+00    0.226E+01
RMM:   8    -0.260482316528E+03   -0.84353E+01   -0.18892E+01 25938   0.681E+00    0.328E+01
RMM:   9    -0.256192658032E+03    0.42897E+01   -0.97724E+00 25985   0.467E+00    0.290E+01
RMM:  10    -0.247270028825E+03    0.89226E+01   -0.30467E+00 25257   0.300E+00    0.110E+01
RMM:  11    -0.246670550858E+03    0.59948E+00   -0.11657E+00 25692   0.170E+00    0.766E+00
RMM:  12    -0.246262663791E+03    0.40789E+00   -0.44977E-01 25925   0.104E+00    0.468E+00
RMM:  13    -0.246152016677E+03    0.11065E+00   -0.31137E-01 25758   0.863E-01    0.276E+00
RMM:  14    -0.246115567538E+03    0.36449E-01   -0.86757E-02 26602   0.452E-01    0.154E+00
RMM:  15    -0.246106204203E+03    0.93633E-02   -0.16282E-02 26717   0.201E-01    0.115E+00
RMM:  16    -0.246097710983E+03    0.84932E-02   -0.16828E-02 25448   0.208E-01    0.799E-01
RMM:  17    -0.246093970833E+03    0.37401E-02   -0.70338E-03 25765   0.135E-01    0.478E-01
RMM:  18    -0.246092404289E+03    0.15665E-02   -0.19773E-03 25812   0.755E-02    0.185E-01
RMM:  19    -0.246092190136E+03    0.21415E-03   -0.54463E-04 26088   0.365E-02    0.159E-01
RMM:  20    -0.246092012089E+03    0.17805E-03   -0.34519E-04 25829   0.287E-02    0.113E-01
RMM:  21    -0.246092058098E+03   -0.46009E-04   -0.37722E-04 25774   0.275E-02    0.729E-02
RMM:  22    -0.246092219591E+03   -0.16149E-03   -0.25851E-04 25921   0.226E-02    0.627E-02
RMM:  23    -0.246092377838E+03   -0.15825E-03   -0.10580E-04 26309   0.147E-02    0.635E-02
RMM:  24    -0.246092679789E+03   -0.30195E-03   -0.96567E-05 25336   0.149E-02    0.390E-02
RMM:  25    -0.246093082587E+03   -0.40280E-03   -0.63060E-05 25306   0.113E-02    0.320E-02
RMM:  26    -0.246093413009E+03   -0.33042E-03   -0.41598E-05 25256   0.879E-03    0.169E-02
RMM:  27    -0.246093525155E+03   -0.11215E-03   -0.79300E-06 22331   0.387E-03    0.126E-02
RMM:  28    -0.246093703915E+03   -0.17876E-03   -0.66126E-06 20157   0.349E-03    0.980E-03
RMM:  29    -0.246093824541E+03   -0.12063E-03   -0.42206E-06 18020   0.290E-03    0.785E-03
RMM:  30    -0.246093975962E+03   -0.15142E-03   -0.49947E-06 18357   0.288E-03    0.737E-03
RMM:  31    -0.246094048054E+03   -0.72092E-04   -0.27330E-06 16326   0.211E-03    0.603E-03
RMM:  32    -0.246094086610E+03   -0.38555E-04   -0.15698E-06 15307   0.153E-03    0.420E-03
RMM:  33    -0.246094099602E+03   -0.12993E-04   -0.57380E-07 13657   0.944E-04    0.300E-03
RMM:  34    -0.246094114082E+03   -0.14479E-04   -0.64237E-07 13978   0.955E-04    0.162E-03
RMM:  35    -0.246094120740E+03   -0.66579E-05   -0.35917E-07 10688   0.717E-04    0.954E-04
RMM:  36    -0.246094125421E+03   -0.46813E-05   -0.35694E-07 11993   0.744E-04    0.567E-04
RMM:  37    -0.246094126504E+03   -0.10828E-05   -0.10152E-07  6754   0.463E-04    0.563E-04
RMM:  38    -0.246094127202E+03   -0.69836E-06   -0.48352E-08  5028   0.431E-04
   1 F= -.24609413E+03 E0= -.24502035E+03  d E =-.214756E+01
