unknown system                          
           1
     8.421642    0.000000    0.000000
     4.210821    7.293356    0.000000
     0.000000    0.000000   21.876242
   Pt   C    H 
  36   2   5
Direct configuration=     1
   0.00000000  0.00000000  0.34283768
   0.33333333  0.00000000  0.34283768
   0.66666667  0.00000000  0.34283768
   0.00000000  0.33333333  0.34283768
   0.33333333  0.33333333  0.34283768
   0.66666667  0.33333333  0.34283768
   0.00000000  0.66666667  0.34283768
   0.33333333  0.66666667  0.34283768
   0.66666667  0.66666667  0.34283768
   0.11111111  0.11111111  0.44761256
   0.44444444  0.11111111  0.44761256
   0.77777778  0.11111111  0.44761256
   0.11111111  0.44444444  0.44761256
   0.44444444  0.44444444  0.44761256
   0.77777778  0.44444444  0.44761256
   0.11111111  0.77777778  0.44761256
   0.44444444  0.77777778  0.44761256
   0.77777778  0.77777778  0.44761256
   0.88788872  0.22371410  0.55084510
   0.22250991  0.22487959  0.55256961
   0.55162472  0.22511764  0.55273788
   0.88825129  0.55691533  0.55104053
   0.22274234  0.55395918  0.55282234
   0.55420439  0.55703018  0.55110585
   0.88785869  0.89037315  0.55095412
   0.22121508  0.89024407  0.55090491
   0.55434115  0.89078055  0.55107839
   0.99749911  0.00302073  0.65600534
   0.33063226  0.00257771  0.65594694
   0.66470623  0.00267634  0.65609433
   0.99723162  0.33633397  0.65591322
   0.33146357  0.33601849  0.66765527
   0.66486105  0.33615947  0.65596561
   0.99733748  0.67000276  0.65608001
   0.33045201  0.67004783  0.65611405
   0.66422423  0.66995940  0.65595250
   0.32314445  0.32920475  0.76333758
   0.45009277  0.37890366  0.79630160
   0.17830031  0.42423223  0.77428995
   0.35513417  0.18833645  0.77349130
   0.43634033  0.36614004  0.84612162
   0.59503165  0.28702786  0.78447532
   0.41659303  0.52075038  0.78725812
