  42  42   0   0
  0.3199246E+02  0.8421642E-09  0.8421642E-09  0.2187624E-08  0.5000000E-15
  1.000000000000000E-004
  CAR 
 unknown system                          
      8.50298601    -13.84025555  301      1.49032194      1.00000000
    -13.840  0.0000E+00  0.0000E+00
    -13.766  0.0000E+00  0.0000E+00
    -13.691  0.4604E-02  0.3429E-03
    -13.617  0.5090E-02  0.7219E-03
    -13.542  0.1071E-01  0.1520E-02
    -13.468  0.2253E-01  0.3198E-02
    -13.393  0.4733E-01  0.6723E-02
    -13.319  0.9912E-01  0.1411E-01
    -13.244  0.2064E+00  0.2947E-01
    -13.170  0.4243E+00  0.6108E-01
    -13.095  0.8506E+00  0.1244E+00
    -13.021  0.1621E+01  0.2452E+00
    -12.947  0.2813E+01  0.4547E+00
    -12.872  0.4169E+01  0.7651E+00
    -12.798  0.4930E+01  0.1132E+01
    -12.723  0.4486E+01  0.1466E+01
    -12.649  0.3208E+01  0.1705E+01
    -12.574  0.1920E+01  0.1848E+01
    -12.500  0.1029E+01  0.1925E+01
    -12.425  0.5192E+00  0.1964E+01
    -12.351  0.2539E+00  0.1983E+01
    -12.276  0.1223E+00  0.1992E+01
    -12.202  0.5846E-01  0.1996E+01
    -12.127  0.2785E-01  0.1998E+01
    -12.053  0.1325E-01  0.1999E+01
    -11.978  0.0000E+00  0.2000E+01
    -11.904  0.0000E+00  0.2000E+01
    -11.829  0.0000E+00  0.2000E+01
    -11.755  0.0000E+00  0.2000E+01
    -11.680  0.0000E+00  0.2000E+01
    -11.606  0.0000E+00  0.2000E+01
    -11.531  0.0000E+00  0.2000E+01
    -11.457  0.0000E+00  0.2000E+01
    -11.382  0.0000E+00  0.2000E+01
    -11.308  0.0000E+00  0.2000E+01
    -11.234  0.0000E+00  0.2000E+01
    -11.159  0.0000E+00  0.2000E+01
    -11.085  0.0000E+00  0.2000E+01
    -11.010  0.0000E+00  0.2000E+01
    -10.936  0.0000E+00  0.2000E+01
    -10.861  0.0000E+00  0.2000E+01
    -10.787  0.0000E+00  0.2000E+01
    -10.712  0.0000E+00  0.2000E+01
    -10.638  0.0000E+00  0.2000E+01
    -10.563  0.0000E+00  0.2000E+01
    -10.489  0.0000E+00  0.2000E+01
    -10.414  0.0000E+00  0.2000E+01
    -10.340  0.0000E+00  0.2000E+01
    -10.265  0.0000E+00  0.2000E+01
    -10.191  0.0000E+00  0.2000E+01
    -10.116  0.0000E+00  0.2000E+01
    -10.042  0.0000E+00  0.2000E+01
     -9.967  0.0000E+00  0.2000E+01
     -9.893  0.4904E-02  0.2000E+01
     -9.818  0.5421E-02  0.2001E+01
     -9.744  0.1141E-01  0.2002E+01
     -9.670  0.2400E-01  0.2003E+01
     -9.595  0.5040E-01  0.2007E+01
     -9.521  0.1055E+00  0.2015E+01
     -9.446  0.2195E+00  0.2031E+01
     -9.372  0.4506E+00  0.2065E+01
     -9.297  0.9005E+00  0.2132E+01
     -9.223  0.1706E+01  0.2259E+01
     -9.148  0.2928E+01  0.2477E+01
     -9.074  0.4267E+01  0.2795E+01
     -8.999  0.4939E+01  0.3163E+01
     -8.925  0.4398E+01  0.3490E+01
     -8.850  0.3091E+01  0.3721E+01
     -8.776  0.1829E+01  0.3857E+01
     -8.701  0.9739E+00  0.3929E+01
     -8.627  0.4896E+00  0.3966E+01
     -8.552  0.2397E+00  0.3984E+01
     -8.478  0.1157E+00  0.3992E+01
     -8.403  0.5724E-01  0.3997E+01
     -8.329  0.3067E-01  0.3999E+01
     -8.254  0.2214E-01  0.4000E+01
     -8.180  0.1953E-01  0.4003E+01
     -8.105  0.4142E-01  0.4006E+01
     -8.031  0.8540E-01  0.4012E+01
     -7.957  0.1710E+00  0.4025E+01
     -7.882  0.3272E+00  0.4049E+01
     -7.808  0.5806E+00  0.4093E+01
     -7.733  0.9188E+00  0.4161E+01
     -7.659  0.1280E+01  0.4256E+01
     -7.584  0.1583E+01  0.4374E+01
     -7.510  0.1782E+01  0.4507E+01
     -7.435  0.1888E+01  0.4648E+01
     -7.361  0.1962E+01  0.4794E+01
     -7.286  0.2050E+01  0.4946E+01
     -7.212  0.2116E+01  0.5104E+01
     -7.137  0.2116E+01  0.5262E+01
     -7.063  0.2082E+01  0.5417E+01
     -6.988  0.2087E+01  0.5572E+01
     -6.914  0.2163E+01  0.5733E+01
     -6.839  0.2297E+01  0.5904E+01
     -6.765  0.2414E+01  0.6084E+01
     -6.690  0.2484E+01  0.6269E+01
     -6.616  0.2570E+01  0.6461E+01
     -6.541  0.2771E+01  0.6667E+01
     -6.467  0.3141E+01  0.6901E+01
     -6.393  0.3675E+01  0.7175E+01
     -6.318  0.4237E+01  0.7491E+01
     -6.244  0.4635E+01  0.7836E+01
     -6.169  0.4821E+01  0.8195E+01
     -6.095  0.4929E+01  0.8562E+01
     -6.020  0.5094E+01  0.8942E+01
     -5.946  0.5332E+01  0.9339E+01
     -5.871  0.5698E+01  0.9764E+01
     -5.797  0.6324E+01  0.1023E+02
     -5.722  0.7220E+01  0.1077E+02
     -5.648  0.8234E+01  0.1139E+02
     -5.573  0.9224E+01  0.1207E+02
     -5.499  0.1004E+02  0.1282E+02
     -5.424  0.1056E+02  0.1361E+02
     -5.350  0.1109E+02  0.1443E+02
     -5.275  0.1224E+02  0.1535E+02
     -5.201  0.1431E+02  0.1641E+02
     -5.126  0.1697E+02  0.1768E+02
     -5.052  0.1971E+02  0.1914E+02
     -4.977  0.2219E+02  0.2080E+02
     -4.903  0.2453E+02  0.2262E+02
     -4.828  0.2703E+02  0.2464E+02
     -4.754  0.2963E+02  0.2684E+02
     -4.680  0.3186E+02  0.2922E+02
     -4.605  0.3347E+02  0.3171E+02
     -4.531  0.3493E+02  0.3431E+02
     -4.456  0.3707E+02  0.3707E+02
     -4.382  0.4005E+02  0.4006E+02
     -4.307  0.4325E+02  0.4328E+02
     -4.233  0.4623E+02  0.4672E+02
     -4.158  0.4891E+02  0.5037E+02
     -4.084  0.5096E+02  0.5416E+02
     -4.009  0.5189E+02  0.5803E+02
     -3.935  0.5175E+02  0.6188E+02
     -3.860  0.5098E+02  0.6568E+02
     -3.786  0.4986E+02  0.6940E+02
     -3.711  0.4814E+02  0.7298E+02
     -3.637  0.4559E+02  0.7638E+02
     -3.562  0.4253E+02  0.7955E+02
     -3.488  0.3961E+02  0.8250E+02
     -3.413  0.3757E+02  0.8530E+02
     -3.339  0.3729E+02  0.8808E+02
     -3.264  0.3924E+02  0.9100E+02
     -3.190  0.4265E+02  0.9418E+02
     -3.115  0.4577E+02  0.9759E+02
     -3.041  0.4748E+02  0.1011E+03
     -2.967  0.4822E+02  0.1047E+03
     -2.892  0.4895E+02  0.1084E+03
     -2.818  0.4970E+02  0.1121E+03
     -2.743  0.4979E+02  0.1158E+03
     -2.669  0.4891E+02  0.1194E+03
     -2.594  0.4744E+02  0.1230E+03
     -2.520  0.4617E+02  0.1264E+03
     -2.445  0.4619E+02  0.1298E+03
     -2.371  0.4831E+02  0.1334E+03
     -2.296  0.5211E+02  0.1373E+03
     -2.222  0.5651E+02  0.1415E+03
     -2.147  0.6072E+02  0.1461E+03
     -2.073  0.6425E+02  0.1508E+03
     -1.998  0.6674E+02  0.1558E+03
     -1.924  0.6855E+02  0.1609E+03
     -1.849  0.7057E+02  0.1662E+03
     -1.775  0.7299E+02  0.1716E+03
     -1.700  0.7516E+02  0.1772E+03
     -1.626  0.7654E+02  0.1829E+03
     -1.551  0.7726E+02  0.1887E+03
     -1.477  0.7760E+02  0.1945E+03
     -1.403  0.7754E+02  0.2002E+03
     -1.328  0.7652E+02  0.2059E+03
     -1.254  0.7374E+02  0.2114E+03
     -1.179  0.6901E+02  0.2166E+03
     -1.105  0.6307E+02  0.2213E+03
     -1.030  0.5721E+02  0.2255E+03
     -0.956  0.5252E+02  0.2295E+03
     -0.881  0.4966E+02  0.2332E+03
     -0.807  0.4901E+02  0.2368E+03
     -0.732  0.5072E+02  0.2406E+03
     -0.658  0.5432E+02  0.2446E+03
     -0.583  0.5814E+02  0.2490E+03
     -0.509  0.6004E+02  0.2534E+03
     -0.434  0.5907E+02  0.2578E+03
     -0.360  0.5632E+02  0.2620E+03
     -0.285  0.5362E+02  0.2660E+03
     -0.211  0.5203E+02  0.2699E+03
     -0.136  0.5171E+02  0.2738E+03
     -0.062  0.5235E+02  0.2777E+03
      0.013  0.5368E+02  0.2817E+03
      0.087  0.5565E+02  0.2858E+03
      0.162  0.5825E+02  0.2902E+03
      0.236  0.6111E+02  0.2947E+03
      0.310  0.6350E+02  0.2994E+03
      0.385  0.6457E+02  0.3043E+03
      0.459  0.6369E+02  0.3090E+03
      0.534  0.6103E+02  0.3135E+03
      0.608  0.5761E+02  0.3178E+03
      0.683  0.5480E+02  0.3219E+03
      0.757  0.5355E+02  0.3259E+03
      0.832  0.5376E+02  0.3299E+03
      0.906  0.5466E+02  0.3340E+03
      0.981  0.5584E+02  0.3381E+03
      1.055  0.5781E+02  0.3425E+03
      1.130  0.6121E+02  0.3470E+03
      1.204  0.6563E+02  0.3519E+03
      1.279  0.6962E+02  0.3571E+03
      1.353  0.7170E+02  0.3624E+03
      1.428  0.7108E+02  0.3677E+03
      1.502  0.6763E+02  0.3728E+03
      1.577  0.6195E+02  0.3774E+03
      1.651  0.5517E+02  0.3815E+03
      1.726  0.4804E+02  0.3851E+03
      1.800  0.4056E+02  0.3881E+03
      1.874  0.3305E+02  0.3906E+03
      1.949  0.2657E+02  0.3925E+03
      2.023  0.2180E+02  0.3942E+03
      2.098  0.1850E+02  0.3956E+03
      2.172  0.1617E+02  0.3968E+03
      2.247  0.1455E+02  0.3978E+03
      2.321  0.1342E+02  0.3989E+03
      2.396  0.1272E+02  0.3998E+03
      2.470  0.1240E+02  0.4007E+03
      2.545  0.1225E+02  0.4016E+03
      2.619  0.1201E+02  0.4025E+03
      2.694  0.1162E+02  0.4034E+03
      2.768  0.1128E+02  0.4042E+03
      2.843  0.1127E+02  0.4051E+03
      2.917  0.1156E+02  0.4059E+03
      2.992  0.1191E+02  0.4068E+03
      3.066  0.1217E+02  0.4077E+03
      3.141  0.1243E+02  0.4087E+03
      3.215  0.1271E+02  0.4096E+03
      3.290  0.1295E+02  0.4106E+03
      3.364  0.1296E+02  0.4115E+03
      3.439  0.1250E+02  0.4125E+03
      3.513  0.1169E+02  0.4133E+03
      3.587  0.1091E+02  0.4142E+03
      3.662  0.1051E+02  0.4149E+03
      3.736  0.1068E+02  0.4157E+03
      3.811  0.1137E+02  0.4166E+03
      3.885  0.1218E+02  0.4175E+03
      3.960  0.1253E+02  0.4184E+03
      4.034  0.1219E+02  0.4193E+03
      4.109  0.1156E+02  0.4202E+03
      4.183  0.1125E+02  0.4210E+03
      4.258  0.1145E+02  0.4219E+03
      4.332  0.1182E+02  0.4228E+03
      4.407  0.1191E+02  0.4237E+03
      4.481  0.1163E+02  0.4245E+03
      4.556  0.1128E+02  0.4254E+03
      4.630  0.1116E+02  0.4262E+03
      4.705  0.1133E+02  0.4270E+03
      4.779  0.1159E+02  0.4279E+03
      4.854  0.1169E+02  0.4288E+03
      4.928  0.1146E+02  0.4296E+03
      5.003  0.1095E+02  0.4304E+03
      5.077  0.1038E+02  0.4312E+03
      5.151  0.9988E+01  0.4320E+03
      5.226  0.9862E+01  0.4327E+03
      5.300  0.9883E+01  0.4334E+03
      5.375  0.9989E+01  0.4342E+03
      5.449  0.1028E+02  0.4349E+03
      5.524  0.1075E+02  0.4357E+03
      5.598  0.1123E+02  0.4366E+03
      5.673  0.1159E+02  0.4374E+03
      5.747  0.1175E+02  0.4383E+03
      5.822  0.1165E+02  0.4392E+03
      5.896  0.1126E+02  0.4400E+03
      5.971  0.1071E+02  0.4408E+03
      6.045  0.1020E+02  0.4416E+03
      6.120  0.9790E+01  0.4423E+03
      6.194  0.9517E+01  0.4430E+03
      6.269  0.9400E+01  0.4437E+03
      6.343  0.9393E+01  0.4444E+03
      6.418  0.9311E+01  0.4451E+03
      6.492  0.8996E+01  0.4458E+03
      6.567  0.8516E+01  0.4464E+03
      6.641  0.8033E+01  0.4470E+03
      6.716  0.7605E+01  0.4476E+03
      6.790  0.7152E+01  0.4481E+03
      6.864  0.6494E+01  0.4486E+03
      6.939  0.5505E+01  0.4490E+03
      7.013  0.4261E+01  0.4493E+03
      7.088  0.2996E+01  0.4496E+03
      7.162  0.1946E+01  0.4497E+03
      7.237  0.1211E+01  0.4498E+03
      7.311  0.7704E+00  0.4499E+03
      7.386  0.5440E+00  0.4499E+03
      7.460  0.4390E+00  0.4499E+03
      7.535  0.3639E+00  0.4500E+03
      7.609  0.2667E+00  0.4500E+03
      7.684  0.1669E+00  0.4500E+03
      7.758  0.9163E-01  0.4500E+03
      7.833  0.4674E-01  0.4500E+03
      7.907  0.2289E-01  0.4500E+03
      7.982  0.1102E-01  0.4500E+03
      8.056  0.5120E-02  0.4500E+03
      8.131  0.2444E-02  0.4500E+03
      8.205  0.1163E-02  0.4500E+03
      8.280  0.1993E-03  0.4500E+03
      8.354  0.0000E+00  0.4500E+03
      8.429  0.0000E+00  0.4500E+03
      8.503  0.0000E+00  0.4500E+03
