  41  41   0   0
  0.3277276E+02  0.8421642E-09  0.8421642E-09  0.2187624E-08  0.5000000E-15
  1.000000000000000E-004
  CAR 
 unknown system                          
      8.10182971    -14.11417383  301      1.47646546      1.00000000
    -14.114  0.0000E+00  0.0000E+00
    -14.040  0.0000E+00  0.0000E+00
    -13.966  0.4839E-02  0.3583E-03
    -13.892  0.5306E-02  0.7512E-03
    -13.818  0.1112E-01  0.1575E-02
    -13.744  0.2329E-01  0.3299E-02
    -13.670  0.4871E-01  0.6907E-02
    -13.596  0.1016E+00  0.1443E-01
    -13.522  0.2105E+00  0.3002E-01
    -13.448  0.4310E+00  0.6194E-01
    -13.374  0.8599E+00  0.1256E+00
    -13.300  0.1632E+01  0.2464E+00
    -13.226  0.2820E+01  0.4553E+00
    -13.151  0.4168E+01  0.7639E+00
    -13.077  0.4929E+01  0.1129E+01
    -13.003  0.4498E+01  0.1462E+01
    -12.929  0.3233E+01  0.1701E+01
    -12.855  0.1946E+01  0.1846E+01
    -12.781  0.1049E+01  0.1923E+01
    -12.707  0.5320E+00  0.1963E+01
    -12.633  0.2614E+00  0.1982E+01
    -12.559  0.1265E+00  0.1991E+01
    -12.485  0.6074E-01  0.1996E+01
    -12.411  0.2906E-01  0.1998E+01
    -12.337  0.1388E-01  0.1999E+01
    -12.263  0.0000E+00  0.2000E+01
    -12.189  0.0000E+00  0.2000E+01
    -12.115  0.0000E+00  0.2000E+01
    -12.041  0.0000E+00  0.2000E+01
    -11.967  0.0000E+00  0.2000E+01
    -11.893  0.0000E+00  0.2000E+01
    -11.819  0.0000E+00  0.2000E+01
    -11.744  0.0000E+00  0.2000E+01
    -11.670  0.0000E+00  0.2000E+01
    -11.596  0.0000E+00  0.2000E+01
    -11.522  0.0000E+00  0.2000E+01
    -11.448  0.0000E+00  0.2000E+01
    -11.374  0.0000E+00  0.2000E+01
    -11.300  0.0000E+00  0.2000E+01
    -11.226  0.0000E+00  0.2000E+01
    -11.152  0.0000E+00  0.2000E+01
    -11.078  0.0000E+00  0.2000E+01
    -11.004  0.0000E+00  0.2000E+01
    -10.930  0.0000E+00  0.2000E+01
    -10.856  0.0000E+00  0.2000E+01
    -10.782  0.0000E+00  0.2000E+01
    -10.708  0.0000E+00  0.2000E+01
    -10.634  0.0000E+00  0.2000E+01
    -10.560  0.0000E+00  0.2000E+01
    -10.486  0.0000E+00  0.2000E+01
    -10.412  0.0000E+00  0.2000E+01
    -10.337  0.0000E+00  0.2000E+01
    -10.263  0.0000E+00  0.2000E+01
    -10.189  0.0000E+00  0.2000E+01
    -10.115  0.0000E+00  0.2000E+01
    -10.041  0.0000E+00  0.2000E+01
     -9.967  0.0000E+00  0.2000E+01
     -9.893  0.0000E+00  0.2000E+01
     -9.819  0.0000E+00  0.2000E+01
     -9.745  0.0000E+00  0.2000E+01
     -9.671  0.6126E-02  0.2000E+01
     -9.597  0.6718E-02  0.2001E+01
     -9.523  0.1408E-01  0.2002E+01
     -9.449  0.2947E-01  0.2004E+01
     -9.375  0.6159E-01  0.2009E+01
     -9.301  0.1283E+00  0.2018E+01
     -9.227  0.2650E+00  0.2038E+01
     -9.153  0.5390E+00  0.2078E+01
     -9.079  0.1062E+01  0.2156E+01
     -9.004  0.1967E+01  0.2302E+01
     -8.930  0.3259E+01  0.2543E+01
     -8.856  0.4516E+01  0.2878E+01
     -8.782  0.4924E+01  0.3242E+01
     -8.708  0.4145E+01  0.3549E+01
     -8.634  0.2795E+01  0.3756E+01
     -8.560  0.1615E+01  0.3876E+01
     -8.486  0.8504E+00  0.3939E+01
     -8.412  0.4282E+00  0.3971E+01
     -8.338  0.2124E+00  0.3986E+01
     -8.264  0.1106E+00  0.3995E+01
     -8.190  0.6887E-01  0.4000E+01
     -8.116  0.6717E-01  0.4005E+01
     -8.042  0.1006E+00  0.4012E+01
     -7.968  0.1789E+00  0.4026E+01
     -7.894  0.3394E+00  0.4051E+01
     -7.820  0.5962E+00  0.4095E+01
     -7.746  0.9334E+00  0.4165E+01
     -7.672  0.1289E+01  0.4260E+01
     -7.597  0.1583E+01  0.4377E+01
     -7.523  0.1775E+01  0.4509E+01
     -7.449  0.1878E+01  0.4648E+01
     -7.375  0.1950E+01  0.4792E+01
     -7.301  0.2038E+01  0.4943E+01
     -7.227  0.2107E+01  0.5099E+01
     -7.153  0.2109E+01  0.5255E+01
     -7.079  0.2078E+01  0.5409E+01
     -7.005  0.2084E+01  0.5563E+01
     -6.931  0.2166E+01  0.5724E+01
     -6.857  0.2313E+01  0.5895E+01
     -6.783  0.2458E+01  0.6077E+01
     -6.709  0.2565E+01  0.6267E+01
     -6.635  0.2705E+01  0.6468E+01
     -6.561  0.2974E+01  0.6688E+01
     -6.487  0.3412E+01  0.6941E+01
     -6.413  0.3998E+01  0.7237E+01
     -6.339  0.4618E+01  0.7579E+01
     -6.265  0.5138E+01  0.7960E+01
     -6.190  0.5555E+01  0.8371E+01
     -6.116  0.6031E+01  0.8818E+01
     -6.042  0.6641E+01  0.9310E+01
     -5.968  0.7307E+01  0.9851E+01
     -5.894  0.7934E+01  0.1044E+02
     -5.820  0.8467E+01  0.1107E+02
     -5.746  0.8798E+01  0.1172E+02
     -5.672  0.8822E+01  0.1237E+02
     -5.598  0.8646E+01  0.1301E+02
     -5.524  0.8654E+01  0.1365E+02
     -5.450  0.9255E+01  0.1434E+02
     -5.376  0.1064E+02  0.1513E+02
     -5.302  0.1280E+02  0.1607E+02
     -5.228  0.1547E+02  0.1722E+02
     -5.154  0.1818E+02  0.1857E+02
     -5.080  0.2056E+02  0.2009E+02
     -5.006  0.2262E+02  0.2176E+02
     -4.932  0.2464E+02  0.2359E+02
     -4.858  0.2684E+02  0.2558E+02
     -4.783  0.2917E+02  0.2774E+02
     -4.709  0.3121E+02  0.3005E+02
     -4.635  0.3255E+02  0.3246E+02
     -4.561  0.3335E+02  0.3493E+02
     -4.487  0.3449E+02  0.3748E+02
     -4.413  0.3660E+02  0.4019E+02
     -4.339  0.3953E+02  0.4312E+02
     -4.265  0.4283E+02  0.4630E+02
     -4.191  0.4613E+02  0.4971E+02
     -4.117  0.4891E+02  0.5334E+02
     -4.043  0.5055E+02  0.5708E+02
     -3.969  0.5094E+02  0.6085E+02
     -3.895  0.5044E+02  0.6459E+02
     -3.821  0.4946E+02  0.6825E+02
     -3.747  0.4795E+02  0.7181E+02
     -3.673  0.4568E+02  0.7519E+02
     -3.599  0.4293E+02  0.7837E+02
     -3.525  0.4033E+02  0.8136E+02
     -3.450  0.3840E+02  0.8420E+02
     -3.376  0.3772E+02  0.8700E+02
     -3.302  0.3878E+02  0.8987E+02
     -3.228  0.4131E+02  0.9293E+02
     -3.154  0.4410E+02  0.9620E+02
     -3.080  0.4598E+02  0.9961E+02
     -3.006  0.4686E+02  0.1031E+03
     -2.932  0.4744E+02  0.1066E+03
     -2.858  0.4810E+02  0.1102E+03
     -2.784  0.4837E+02  0.1137E+03
     -2.710  0.4771E+02  0.1173E+03
     -2.636  0.4634E+02  0.1207E+03
     -2.562  0.4522E+02  0.1241E+03
     -2.488  0.4547E+02  0.1274E+03
     -2.414  0.4779E+02  0.1310E+03
     -2.340  0.5172E+02  0.1348E+03
     -2.266  0.5615E+02  0.1390E+03
     -2.192  0.6029E+02  0.1434E+03
     -2.118  0.6389E+02  0.1482E+03
     -2.043  0.6664E+02  0.1531E+03
     -1.969  0.6843E+02  0.1582E+03
     -1.895  0.6986E+02  0.1633E+03
     -1.821  0.7159E+02  0.1686E+03
     -1.747  0.7358E+02  0.1741E+03
     -1.673  0.7547E+02  0.1797E+03
     -1.599  0.7710E+02  0.1854E+03
     -1.525  0.7843E+02  0.1912E+03
     -1.451  0.7909E+02  0.1971E+03
     -1.377  0.7845E+02  0.2029E+03
     -1.303  0.7588E+02  0.2085E+03
     -1.229  0.7127E+02  0.2138E+03
     -1.155  0.6531E+02  0.2186E+03
     -1.081  0.5937E+02  0.2230E+03
     -1.007  0.5460E+02  0.2271E+03
     -0.933  0.5141E+02  0.2309E+03
     -0.859  0.4986E+02  0.2346E+03
     -0.785  0.5023E+02  0.2383E+03
     -0.711  0.5266E+02  0.2422E+03
     -0.636  0.5630E+02  0.2464E+03
     -0.562  0.5926E+02  0.2508E+03
     -0.488  0.5985E+02  0.2552E+03
     -0.414  0.5802E+02  0.2595E+03
     -0.340  0.5520E+02  0.2636E+03
     -0.266  0.5287E+02  0.2675E+03
     -0.192  0.5177E+02  0.2713E+03
     -0.118  0.5192E+02  0.2752E+03
     -0.044  0.5300E+02  0.2791E+03
      0.030  0.5474E+02  0.2832E+03
      0.104  0.5703E+02  0.2874E+03
      0.178  0.5967E+02  0.2918E+03
      0.252  0.6210E+02  0.2964E+03
      0.326  0.6361E+02  0.3011E+03
      0.400  0.6353E+02  0.3058E+03
      0.474  0.6163E+02  0.3104E+03
      0.548  0.5852E+02  0.3147E+03
      0.622  0.5540E+02  0.3188E+03
      0.696  0.5341E+02  0.3228E+03
      0.771  0.5297E+02  0.3267E+03
      0.845  0.5362E+02  0.3307E+03
      0.919  0.5470E+02  0.3347E+03
      0.993  0.5615E+02  0.3389E+03
      1.067  0.5859E+02  0.3432E+03
      1.141  0.6221E+02  0.3479E+03
      1.215  0.6634E+02  0.3528E+03
      1.289  0.6972E+02  0.3579E+03
      1.363  0.7109E+02  0.3632E+03
      1.437  0.6972E+02  0.3684E+03
      1.511  0.6557E+02  0.3732E+03
      1.585  0.5940E+02  0.3776E+03
      1.659  0.5244E+02  0.3815E+03
      1.733  0.4521E+02  0.3849E+03
      1.807  0.3770E+02  0.3877E+03
      1.881  0.3049E+02  0.3899E+03
      1.955  0.2463E+02  0.3917E+03
      2.029  0.2046E+02  0.3933E+03
      2.104  0.1767E+02  0.3946E+03
      2.178  0.1576E+02  0.3957E+03
      2.252  0.1432E+02  0.3968E+03
      2.326  0.1325E+02  0.3978E+03
      2.400  0.1261E+02  0.3987E+03
      2.474  0.1234E+02  0.3996E+03
      2.548  0.1225E+02  0.4005E+03
      2.622  0.1211E+02  0.4014E+03
      2.696  0.1191E+02  0.4023E+03
      2.770  0.1184E+02  0.4032E+03
      2.844  0.1199E+02  0.4041E+03
      2.918  0.1233E+02  0.4050E+03
      2.992  0.1268E+02  0.4059E+03
      3.066  0.1284E+02  0.4069E+03
      3.140  0.1288E+02  0.4079E+03
      3.214  0.1290E+02  0.4088E+03
      3.288  0.1289E+02  0.4098E+03
      3.362  0.1268E+02  0.4107E+03
      3.436  0.1223E+02  0.4116E+03
      3.511  0.1170E+02  0.4125E+03
      3.585  0.1129E+02  0.4133E+03
      3.659  0.1120E+02  0.4141E+03
      3.733  0.1152E+02  0.4150E+03
      3.807  0.1211E+02  0.4159E+03
      3.881  0.1256E+02  0.4168E+03
      3.955  0.1254E+02  0.4177E+03
      4.029  0.1215E+02  0.4186E+03
      4.103  0.1168E+02  0.4195E+03
      4.177  0.1140E+02  0.4204E+03
      4.251  0.1147E+02  0.4212E+03
      4.325  0.1182E+02  0.4221E+03
      4.399  0.1201E+02  0.4230E+03
      4.473  0.1176E+02  0.4238E+03
      4.547  0.1133E+02  0.4247E+03
      4.621  0.1119E+02  0.4255E+03
      4.695  0.1143E+02  0.4264E+03
      4.769  0.1175E+02  0.4272E+03
      4.843  0.1184E+02  0.4281E+03
      4.918  0.1157E+02  0.4290E+03
      4.992  0.1101E+02  0.4298E+03
      5.066  0.1044E+02  0.4306E+03
      5.140  0.1012E+02  0.4313E+03
      5.214  0.1009E+02  0.4321E+03
      5.288  0.1022E+02  0.4328E+03
      5.362  0.1036E+02  0.4336E+03
      5.436  0.1054E+02  0.4344E+03
      5.510  0.1083E+02  0.4352E+03
      5.584  0.1118E+02  0.4360E+03
      5.658  0.1144E+02  0.4368E+03
      5.732  0.1149E+02  0.4377E+03
      5.806  0.1138E+02  0.4385E+03
      5.880  0.1120E+02  0.4394E+03
      5.954  0.1090E+02  0.4402E+03
      6.028  0.1051E+02  0.4409E+03
      6.102  0.1010E+02  0.4417E+03
      6.176  0.9731E+01  0.4424E+03
      6.250  0.9556E+01  0.4431E+03
      6.325  0.9635E+01  0.4438E+03
      6.399  0.9784E+01  0.4446E+03
      6.473  0.9704E+01  0.4453E+03
      6.547  0.9278E+01  0.4460E+03
      6.621  0.8675E+01  0.4466E+03
      6.695  0.8145E+01  0.4472E+03
      6.769  0.7761E+01  0.4478E+03
      6.843  0.7353E+01  0.4483E+03
      6.917  0.6633E+01  0.4488E+03
      6.991  0.5494E+01  0.4492E+03
      7.065  0.4096E+01  0.4495E+03
      7.139  0.2733E+01  0.4497E+03
      7.213  0.1638E+01  0.4499E+03
      7.287  0.8967E+00  0.4499E+03
      7.361  0.4613E+00  0.4500E+03
      7.435  0.2270E+00  0.4500E+03
      7.509  0.1092E+00  0.4500E+03
      7.583  0.5027E-01  0.4500E+03
      7.658  0.2187E-01  0.4500E+03
      7.732  0.7777E-02  0.4500E+03
      7.806  0.2585E-02  0.4500E+03
      7.880  0.4082E-03  0.4500E+03
      7.954  0.0000E+00  0.4500E+03
      8.028  0.0000E+00  0.4500E+03
      8.102  0.0000E+00  0.4500E+03
