 vasp.5.4.1 24Jun15 (build Oct 10 2016 12:42:00) complex                        
  
 executed on           IFC91_ompi date 2018.06.30  23:25:08
 running on   20 total cores
 distrk:  each k-point on   20 cores,    1 groups
 distr:  one band on NCORES_PER_BAND=   4 cores,    5 groups


--------------------------------------------------------------------------------------------------------


 INCAR:
 POTCAR:    PAW_PBE Pt 04Feb2005                  
 POTCAR:    PAW_PBE C 08Apr2002                   
 POTCAR:    PAW_PBE H 15Jun2001                   
 POTCAR:    PAW_PBE Pt 04Feb2005                  
   VRHFIN =Pt: s1d9                                                             
   LEXCH  = PE                                                                  
   EATOM  =   729.1176 eV,   53.5886 Ry                                         
                                                                                
   TITEL  = PAW_PBE Pt 04Feb2005                                                
   LULTRA =        F    use ultrasoft PP ?                                      
   IUNSCR =        1    unscreen: 0-lin 1-nonlin 2-no                           
   RPACOR =    2.330    partial core radius                                     
   POMASS =  195.080; ZVAL   =   10.000    mass and valenz                      
   RCORE  =    2.600    outmost cutoff radius                                   
   RWIGS  =    2.750; RWIGS  =    1.455    wigner-seitz radius (au A)           
   ENMAX  =  230.283; ENMIN  =  172.712 eV                                      
   ICORE  =        3    local potential                                         
   LCOR   =        T    correct aug charges                                     
   LPAW   =        T    paw PP                                                  
   EAUG   =  358.966                                                            
   DEXC   =    0.000                                                            
   RMAX   =    2.658    core radius for proj-oper                               
   RAUG   =    1.300    factor for augmentation sphere                          
   RDEP   =    2.761    radius for radial grids                                 
   RDEPT  =    2.203    core radius for aug-charge                              
                                                                                
   Atomic configuration                                                         
   16 entries                                                                   
     n  l   j            E        occ.                                          
     1  0  0.50    -78401.1885   2.0000                                         
     2  0  0.50    -13770.7750   2.0000                                         
     2  1  1.50    -11931.0468   6.0000                                         
     3  0  0.50     -3234.7234   2.0000                                         
     3  1  1.50     -2699.2216   6.0000                                         
     3  2  2.50     -2119.5714  10.0000                                         
     4  0  0.50      -695.1528   2.0000                                         
     4  1  1.50      -519.6034   6.0000                                         
     4  2  2.50      -306.6786  10.0000                                         
     4  3  3.50       -70.1041  14.0000                                         
     5  0  0.50      -101.7747   2.0000                                         
     5  1  1.50       -55.9873   6.0000                                         
     5  2  2.50        -6.1423   9.0000                                         
     6  0  0.50        -5.6573   1.0000                                         
     6  1  1.50        -6.8029   0.0000                                         
     5  3  2.50        -1.3606   0.0000                                         
   Description                                                                  
     l       E           TYP  RCUT    TYP  RCUT                                 
     2     -6.1423404     23  2.500                                             
     2     -7.5029230     23  2.500                                             
     0     -5.6573207     23  2.500                                             
     0      0.7416693     23  2.500                                             
     1     -2.7211652     23  2.600                                             
     1     20.4087390     23  2.600                                             
     3     -1.3605826     23  2.500                                             
  local pseudopotential read in
  partial core-charges read in
  partial kinetic energy density read in
  atomic valenz-charges read in
  non local Contribution for L=           2  read in
    real space projection operators read in
  non local Contribution for L=           2  read in
    real space projection operators read in
  non local Contribution for L=           0  read in
    real space projection operators read in
  non local Contribution for L=           0  read in
    real space projection operators read in
  non local Contribution for L=           1  read in
    real space projection operators read in
  non local Contribution for L=           1  read in
    real space projection operators read in
    PAW grid and wavefunctions read in
 
   number of l-projection  operators is LMAX  =           6
   number of lm-projection operators is LMMAX =          18
 
 POTCAR:    PAW_PBE C 08Apr2002                   
   VRHFIN =C: s2p2                                                              
   LEXCH  = PE                                                                  
   EATOM  =   147.1560 eV,   10.8157 Ry                                         
                                                                                
   TITEL  = PAW_PBE C 08Apr2002                                                 
   LULTRA =        F    use ultrasoft PP ?                                      
   IUNSCR =        1    unscreen: 0-lin 1-nonlin 2-no                           
   RPACOR =    1.200    partial core radius                                     
   POMASS =   12.011; ZVAL   =    4.000    mass and valenz                      
   RCORE  =    1.500    outmost cutoff radius                                   
   RWIGS  =    1.630; RWIGS  =    0.863    wigner-seitz radius (au A)           
   ENMAX  =  400.000; ENMIN  =  300.000 eV                                      
   ICORE  =        2    local potential                                         
   LCOR   =        T    correct aug charges                                     
   LPAW   =        T    paw PP                                                  
   EAUG   =  644.873                                                            
   DEXC   =    0.000                                                            
   RMAX   =    1.529    core radius for proj-oper                               
   RAUG   =    1.300    factor for augmentation sphere                          
   RDEP   =    1.501    radius for radial grids                                 
   RDEPT  =    1.300    core radius for aug-charge                              
                                                                                
   Atomic configuration                                                         
    4 entries                                                                   
     n  l   j            E        occ.                                          
     1  0  0.50      -273.3789   2.0000                                         
     2  0  0.50       -13.7508   2.0000                                         
     2  1  0.50        -5.2854   2.0000                                         
     3  2  1.50        -5.4423   0.0000                                         
   Description                                                                  
     l       E           TYP  RCUT    TYP  RCUT                                 
     0    -13.7508458     23  1.200                                             
     0     -8.2022199     23  1.200                                             
     1     -5.2854383     23  1.500                                             
     1     34.0145650     23  1.500                                             
     2     -5.4423304      7  1.500                                             
  local pseudopotential read in
  partial core-charges read in
  partial kinetic energy density read in
  atomic valenz-charges read in
  non local Contribution for L=           0  read in
    real space projection operators read in
  non local Contribution for L=           0  read in
    real space projection operators read in
  non local Contribution for L=           1  read in
    real space projection operators read in
  non local Contribution for L=           1  read in
    real space projection operators read in
    PAW grid and wavefunctions read in
 
   number of l-projection  operators is LMAX  =           4
   number of lm-projection operators is LMMAX =           8
 
 POTCAR:    PAW_PBE H 15Jun2001                   
   VRHFIN =H: ultrasoft test                                                    
   LEXCH  = PE                                                                  
   EATOM  =    12.4884 eV,    0.9179 Ry                                         
                                                                                
   TITEL  = PAW_PBE H 15Jun2001                                                 
   LULTRA =        F    use ultrasoft PP ?                                      
   IUNSCR =        0    unscreen: 0-lin 1-nonlin 2-no                           
   RPACOR =    0.000    partial core radius                                     
   POMASS =    1.000; ZVAL   =    1.000    mass and valenz                      
   RCORE  =    1.100    outmost cutoff radius                                   
   RWIGS  =    0.700; RWIGS  =    0.370    wigner-seitz radius (au A)           
   ENMAX  =  250.000; ENMIN  =  200.000 eV                                      
   RCLOC  =    0.701    cutoff for local pot                                    
   LCOR   =        T    correct aug charges                                     
   LPAW   =        T    paw PP                                                  
   EAUG   =  400.000                                                            
   RMAX   =    1.123    core radius for proj-oper                               
   RAUG   =    1.200    factor for augmentation sphere                          
   RDEP   =    1.112    radius for radial grids                                 
   RDEPT  =    0.926    core radius for aug-charge                              
                                                                                
   Atomic configuration                                                         
    2 entries                                                                   
     n  l   j            E        occ.                                          
     1  0  0.50        -6.4927   1.0000                                         
     2  1  0.50        -3.4015   0.0000                                         
   Description                                                                  
     l       E           TYP  RCUT    TYP  RCUT                                 
     0     -6.4927494     23  1.100                                             
     0      6.8029130     23  1.100                                             
     1     -4.0817478     23  1.100                                             
  local pseudopotential read in
  atomic valenz-charges read in
  non local Contribution for L=           0  read in
    real space projection operators read in
  non local Contribution for L=           0  read in
    real space projection operators read in
  non local Contribution for L=           1  read in
    real space projection operators read in
    PAW grid and wavefunctions read in
 
   number of l-projection  operators is LMAX  =           3
   number of lm-projection operators is LMMAX =           5
 
 Optimization of the real space projectors (new method)

 maximal supplied QI-value         = 14.36
 optimisation between [QCUT,QGAM] = [ 10.20, 20.39] = [ 29.12,116.47] Ry 
 Optimized for a Real-space Cutoff    1.51 Angstroem

   l    n(q)    QCUT    max X(q) W(low)/X(q) W(high)/X(q)  e(spline) 
   2      8    10.197    66.195    0.45E-03    0.45E-03    0.14E-06
   2      8    10.197    64.643    0.46E-03    0.46E-03    0.14E-06
   0      9    10.197    95.520    0.15E-03    0.11E-03    0.54E-07
   0      9    10.197    63.403    0.15E-03    0.11E-03    0.52E-07
   1      9    10.197    19.961    0.13E-03    0.17E-03    0.77E-07
   1      9    10.197    13.289    0.10E-03    0.15E-03    0.67E-07
 Optimization of the real space projectors (new method)

 maximal supplied QI-value         = 25.13
 optimisation between [QCUT,QGAM] = [ 10.05, 20.36] = [ 28.30,116.06] Ry 
 Optimized for a Real-space Cutoff    1.30 Angstroem

   l    n(q)    QCUT    max X(q) W(low)/X(q) W(high)/X(q)  e(spline) 
   0      8    10.053   115.676    0.49E-03    0.72E-03    0.18E-06
   0      8    10.053    87.132    0.49E-03    0.71E-03    0.18E-06
   1      7    10.053     4.429    0.32E-03    0.31E-03    0.18E-06
   1      7    10.053     2.733    0.23E-03    0.19E-03    0.20E-06
 Optimization of the real space projectors (new method)

 maximal supplied QI-value         = 34.20
 optimisation between [QCUT,QGAM] = [  9.92, 20.18] = [ 27.55,114.04] Ry 
 Optimized for a Real-space Cutoff    1.26 Angstroem

   l    n(q)    QCUT    max X(q) W(low)/X(q) W(high)/X(q)  e(spline) 
   0      8     9.919    19.460    0.50E-03    0.23E-03    0.29E-06
   0      8     9.919    12.209    0.48E-03    0.23E-03    0.28E-06
   1      7     9.919     4.655    0.17E-03    0.75E-03    0.30E-06
  PAW_PBE Pt 04Feb2005                  :
 energy of atom  1       EATOM= -729.1176
 kinetic energy error for atom=    0.0056 (will be added to EATOM!!)
  PAW_PBE C 08Apr2002                   :
 energy of atom  2       EATOM= -147.1560
 kinetic energy error for atom=    0.0288 (will be added to EATOM!!)
  PAW_PBE H 15Jun2001                   :
 energy of atom  3       EATOM=  -12.4884
 kinetic energy error for atom=    0.0098 (will be added to EATOM!!)
 
 
 POSCAR: Pt  C  H                                
  positions in cartesian coordinates
  No initial velocities read in
 exchange correlation table for  LEXCH =        8
   RHO(1)=    0.500       N(1)  =     2000
   RHO(2)=  100.500       N(2)  =     4000

 VTST: version 3.1, (03/28/14)

 CHAIN: initializing optimizer
 
 OPT: Using VASP Dynamics algorithm
 CHAIN: Read ICHAIN            0
 
 POSCAR: Pt  C  H                                
  positions in cartesian coordinates
  No initial velocities read in
 


--------------------------------------------------------------------------------------------------------


 ion  position               nearest neighbor table
   1  0.000  0.000  0.343-  12 2.81  16 2.81  10 2.81   6 2.81   7 2.81   8 2.81   2 2.81   3 2.81
                             4 2.81
   2  0.333  0.000  0.343-  10 2.81  11 2.81  17 2.81   3 2.81   9 2.81   1 2.81   4 2.81   5 2.81
                             8 2.81
   3  0.667  0.000  0.343-  11 2.81  18 2.81  12 2.81   2 2.81   5 2.81   9 2.81   1 2.81   6 2.81
                             7 2.81
   4  0.000  0.333  0.343-  10 2.81  13 2.81  15 2.81   7 2.81   9 2.81   2 2.81   5 2.81   6 2.81
                             1 2.81
   5  0.333  0.333  0.343-  14 2.81  13 2.81  11 2.81   8 2.81   6 2.81   3 2.81   7 2.81   2 2.81
                             4 2.81
   6  0.667  0.333  0.343-  12 2.81  14 2.81  15 2.81   5 2.81   8 2.81   9 2.81   1 2.81   3 2.81
                             4 2.81
   7  0.000  0.667  0.343-  13 2.81  18 2.81  16 2.81   4 2.81   5 2.81   9 2.81   1 2.81   3 2.81
                             8 2.81
   8  0.333  0.667  0.343-  14 2.81  16 2.81  17 2.81   5 2.81   6 2.81   9 2.81   2 2.81   7 2.81
                             1 2.81
   9  0.667  0.667  0.343-  15 2.81  17 2.81  18 2.81   8 2.81   6 2.81   4 2.81   2 2.81   3 2.81
                             7 2.81
  10  0.111  0.111  0.448-  26 2.77  20 2.80  19 2.81   4 2.81   2 2.81   1 2.81  13 2.81  11 2.81
                            17 2.81  15 2.81  12 2.81  16 2.81
  11  0.444  0.111  0.448-  20 2.79  21 2.80  27 2.81   2 2.81   3 2.81   5 2.81  10 2.81  13 2.81
                            14 2.81  12 2.81  17 2.81  18 2.81
  12  0.778  0.111  0.448-  19 2.79  21 2.80   1 2.81   6 2.81   3 2.81  15 2.81  14 2.81  16 2.81
                            18 2.81  10 2.81  11 2.81  25 2.82
  13  0.111  0.444  0.448-  22 2.78  23 2.80  20 2.81   4 2.81   5 2.81   7 2.81  10 2.81  11 2.81
                            14 2.81  15 2.81  16 2.81  18 2.81
  14  0.444  0.444  0.448-  24 2.79  23 2.80   5 2.81   6 2.81   8 2.81  11 2.81  13 2.81  12 2.81
                            16 2.81  15 2.81  17 2.81  21 2.81
  15  0.778  0.444  0.448-  22 2.78  24 2.79  19 2.81   4 2.81   6 2.81   9 2.81  12 2.81  10 2.81
                            18 2.81  13 2.81  14 2.81  17 2.81
  16  0.111  0.778  0.448-  26 2.75   8 2.81   1 2.81   7 2.81  17 2.81  14 2.81  10 2.81  12 2.81
                            18 2.81  13 2.81  25 2.82  23 2.83
  17  0.444  0.778  0.448-  26 2.76  27 2.80   9 2.81   2 2.81   8 2.81  16 2.81  10 2.81  11 2.81
                            18 2.81  14 2.81  15 2.81  24 2.82
  18  0.778  0.778  0.448-  27 2.79  25 2.80  22 2.80   7 2.81   3 2.81   9 2.81  15 2.81  16 2.81
                            17 2.81  11 2.81  12 2.81  13 2.81
  19  0.888  0.221  0.552-  24 2.78  12 2.79  21 2.80  22 2.81  28 2.81  10 2.81  15 2.81  31 2.81
                            25 2.81  26 2.82  20 2.83  33 2.86
  20  0.224  0.221  0.552-  23 2.78  11 2.79  31 2.80  21 2.80  10 2.80  29 2.80  22 2.81  13 2.81
                            27 2.81  26 2.82  19 2.83  32 2.91
  21  0.556  0.220  0.552-  23 2.79  25 2.79  24 2.80  19 2.80  11 2.80  27 2.80  20 2.80  12 2.80
                            14 2.81  32 2.90  30 2.91  33 2.93
  22  0.890  0.553  0.551-  15 2.78  13 2.78  18 2.80  23 2.80  25 2.80  27 2.80  19 2.81  20 2.81
                            24 2.81  36 2.81  34 2.82  31 2.83
  23  0.224  0.550  0.553-  20 2.78  35 2.78  21 2.79  34 2.80  13 2.80  22 2.80  14 2.80  24 2.81
                            26 2.82  16 2.83  25 2.84  32 2.91
  24  0.558  0.551  0.552-  19 2.78  15 2.79  35 2.79  14 2.79  21 2.80  22 2.81  36 2.81  23 2.81
                            17 2.82  26 2.82  27 2.83  33 2.88
  25  0.887  0.887  0.553-  27 2.78  28 2.78  21 2.79  18 2.80  22 2.80  34 2.81  19 2.81  12 2.82
                            16 2.82  26 2.82  23 2.84  30 2.90
  26  0.223  0.886  0.550-  16 2.75  17 2.76  10 2.77  29 2.79  28 2.81  25 2.82  24 2.82  23 2.82
                            19 2.82  20 2.82  27 2.83  35 2.83
  27  0.558  0.887  0.552-  25 2.78  18 2.79  29 2.79  21 2.80  17 2.80  22 2.80  11 2.81  36 2.81
                            20 2.81  26 2.83  24 2.83  30 2.91
  28  0.004  0.994  0.656-  29 2.76  35 2.78  25 2.78  34 2.80  19 2.81  26 2.81  31 2.82  33 2.83
                            30 2.83
  29  0.332  0.992  0.655-  28 2.76  35 2.76  26 2.79  27 2.79  36 2.80  31 2.80  20 2.80  32 2.84
                            30 2.85
  30  0.667  0.998  0.663-  37 2.06  32 2.77  36 2.81  28 2.83  34 2.83  29 2.85  33 2.86  25 2.90
                            27 2.91  21 2.91
  31  0.004  0.329  0.657-  33 2.76  20 2.80  34 2.80  32 2.80  29 2.80  19 2.81  36 2.82  28 2.82
                            22 2.83
  32  0.337  0.327  0.663-  37 2.06  30 2.77  31 2.80  34 2.83  35 2.83  29 2.84  33 2.86  21 2.90
                            20 2.91  23 2.91
  33  0.673  0.334  0.662-  38 2.09  37 2.70  36 2.76  31 2.76  35 2.82  28 2.83  30 2.86  32 2.86
                            19 2.86  24 2.88  21 2.93
  34  0.002  0.662  0.657-  23 2.80  36 2.80  31 2.80  35 2.80  28 2.80  25 2.81  22 2.82  32 2.83
                            30 2.83
  35  0.334  0.664  0.656-  29 2.76  28 2.78  23 2.78  24 2.79  34 2.80  33 2.82  36 2.83  26 2.83
                            32 2.83
  36  0.669  0.664  0.657-  33 2.76  34 2.80  29 2.80  30 2.81  22 2.81  27 2.81  24 2.81  31 2.82
                            35 2.83
  37  0.521  0.181  0.732-  39 1.10  38 1.47  32 2.06  30 2.06  33 2.70
  38  0.618  0.279  0.750-  41 1.10  40 1.10  37 1.47  33 2.09
  39  0.468  0.125  0.766-  37 1.10
  40  0.532  0.410  0.774-  38 1.10
  41  0.748  0.194  0.774-  38 1.10
 
  LATTYP: Found a hexagonal cell.
 ALAT       =     8.4216417639
 C/A-ratio  =     2.5976219743
  
  Lattice vectors:
  
 A1 = (   4.2108208820,  -7.2933557091,   0.0000000000)
 A2 = (  -8.4216417639,   0.0000000000,   0.0000000000)
 A3 = (   0.0000000000,   0.0000000000, -21.8762417060)


Analysis of symmetry for initial positions (statically):
=====================================================================
 Subroutine PRICEL returns:
 Original cell was already a primitive cell.
 

 Routine SETGRP: Setting up the symmetry group for a 
 hexagonal supercell.


 Subroutine GETGRP returns: Found  1 space group operations
 (whereof  1 operations were pure point group operations)
 out of a pool of 24 trial point group operations.


The static configuration has the point symmetry C_1 .


Analysis of symmetry for dynamics (positions and initial velocities):
=====================================================================
 Subroutine PRICEL returns:
 Original cell was already a primitive cell.
 

 Routine SETGRP: Setting up the symmetry group for a 
 hexagonal supercell.


 Subroutine GETGRP returns: Found  1 space group operations
 (whereof  1 operations were pure point group operations)
 out of a pool of 24 trial point group operations.


The dynamic configuration has the point symmetry C_1 .


Analysis of constrained symmetry for selective dynamics:
=====================================================================
 Subroutine PRICEL returns:
 Original cell was already a primitive cell.
 

 Routine SETGRP: Setting up the symmetry group for a 
 hexagonal supercell.


 Subroutine GETGRP returns: Found  1 space group operations
 (whereof  1 operations were pure point group operations)
 out of a pool of 24 trial point group operations.


The constrained configuration has the point symmetry C_1 .
 
 
 KPOINTS: KPOINTS created by Atomic Simulation Env

Automatic generation of k-mesh.
Space group operators:
 irot       det(A)        alpha          n_x          n_y          n_z        tau_x        tau_y        tau_z
    1     1.000000     0.000000     1.000000     0.000000     0.000000     0.000000     0.000000     0.000000
 
 Subroutine IBZKPT returns following result:
 ===========================================
 
 Found     54 irreducible k-points:
 
 Following reciprocal coordinates:
            Coordinates               Weight
  0.083333  0.083333  0.000000     16.000000
  0.000000  0.083333  0.000000     16.000000
 -0.083333  0.000000  0.000000     16.000000
  0.250000  0.083333  0.000000     16.000000
  0.166667  0.250000  0.000000     16.000000
 -0.083333  0.166667  0.000000     16.000000
  0.166667 -0.083333  0.000000     16.000000
 -0.083333 -0.250000  0.000000     16.000000
 -0.250000 -0.166667  0.000000     16.000000
  0.416667  0.083333  0.000000     16.000000
  0.333333  0.416667  0.000000     16.000000
 -0.083333  0.333333  0.000000     16.000000
  0.333333 -0.083333  0.000000     16.000000
 -0.083333 -0.416667  0.000000     16.000000
 -0.416667 -0.333333  0.000000     16.000000
 -0.416667  0.083333  0.000000     16.000000
  0.500000 -0.416667  0.000000     16.000000
 -0.083333  0.500000  0.000000     16.000000
  0.500000 -0.083333  0.000000     16.000000
 -0.083333  0.416667  0.000000     16.000000
  0.416667  0.500000  0.000000     16.000000
 -0.250000  0.083333  0.000000     16.000000
 -0.333333 -0.250000  0.000000     16.000000
 -0.083333 -0.333333  0.000000     16.000000
 -0.333333 -0.083333  0.000000     16.000000
 -0.083333  0.250000  0.000000     16.000000
  0.250000  0.333333  0.000000     16.000000
 -0.083333  0.083333  0.000000     16.000000
 -0.166667 -0.083333  0.000000     16.000000
 -0.083333 -0.166667  0.000000     16.000000
  0.250000  0.250000  0.000000     16.000000
  0.000000  0.250000  0.000000     16.000000
 -0.250000  0.000000  0.000000     16.000000
  0.416667  0.250000  0.000000     16.000000
  0.166667  0.416667  0.000000     16.000000
 -0.250000  0.166667  0.000000     16.000000
  0.166667 -0.250000  0.000000     16.000000
 -0.250000 -0.416667  0.000000     16.000000
 -0.416667 -0.166667  0.000000     16.000000
 -0.416667  0.250000  0.000000     16.000000
  0.333333 -0.416667  0.000000     16.000000
 -0.250000  0.333333  0.000000     16.000000
  0.333333 -0.250000  0.000000     16.000000
 -0.250000  0.416667  0.000000     16.000000
  0.416667 -0.333333  0.000000     16.000000
 -0.250000  0.250000  0.000000     16.000000
  0.500000 -0.250000  0.000000     16.000000
 -0.250000  0.500000  0.000000     16.000000
  0.416667  0.416667  0.000000     16.000000
  0.000000  0.416667  0.000000     16.000000
 -0.416667 -0.000000  0.000000     16.000000
 -0.416667  0.416667  0.000000     16.000000
  0.166667 -0.416667  0.000000     16.000000
 -0.416667  0.166667  0.000000     16.000000
 
 Following cartesian coordinates:
            Coordinates               Weight
  0.009895  0.005713  0.000000     16.000000
  0.000000  0.011426  0.000000     16.000000
 -0.009895  0.005713  0.000000     16.000000
  0.029685 -0.005713  0.000000     16.000000
  0.019790  0.022852  0.000000     16.000000
 -0.009895  0.028565  0.000000     16.000000
  0.019790 -0.022852  0.000000     16.000000
 -0.009895 -0.028565  0.000000     16.000000
 -0.029685 -0.005713  0.000000     16.000000
  0.049476 -0.017139  0.000000     16.000000
  0.039581  0.034278  0.000000     16.000000
 -0.009895  0.051417  0.000000     16.000000
  0.039581 -0.034278  0.000000     16.000000
 -0.009895 -0.051417  0.000000     16.000000
 -0.049476 -0.017139  0.000000     16.000000
 -0.049476  0.039991  0.000000     16.000000
  0.059371 -0.091407  0.000000     16.000000
 -0.009895  0.074269  0.000000     16.000000
  0.059371 -0.045704  0.000000     16.000000
 -0.009895  0.062843  0.000000     16.000000
  0.049476  0.039991  0.000000     16.000000
 -0.029685  0.028565  0.000000     16.000000
 -0.039581 -0.011426  0.000000     16.000000
 -0.009895 -0.039991  0.000000     16.000000
 -0.039581  0.011426  0.000000     16.000000
 -0.009895  0.039991  0.000000     16.000000
  0.029685  0.028565  0.000000     16.000000
 -0.009895  0.017139  0.000000     16.000000
 -0.019790  0.000000  0.000000     16.000000
 -0.009895 -0.017139  0.000000     16.000000
  0.029685  0.017139  0.000000     16.000000
  0.000000  0.034278  0.000000     16.000000
 -0.029685  0.017139  0.000000     16.000000
  0.049476  0.005713  0.000000     16.000000
  0.019790  0.045704  0.000000     16.000000
 -0.029685  0.039991  0.000000     16.000000
  0.019790 -0.045704  0.000000     16.000000
 -0.029685 -0.039991  0.000000     16.000000
 -0.049476  0.005713  0.000000     16.000000
 -0.049476  0.062843  0.000000     16.000000
  0.039581 -0.079981  0.000000     16.000000
 -0.029685  0.062843  0.000000     16.000000
  0.039581 -0.057130  0.000000     16.000000
 -0.029685  0.074269  0.000000     16.000000
  0.049476 -0.074269  0.000000     16.000000
 -0.029685  0.051417  0.000000     16.000000
  0.059371 -0.068556  0.000000     16.000000
 -0.029685  0.085694  0.000000     16.000000
  0.049476  0.028565  0.000000     16.000000
  0.000000  0.057130  0.000000     16.000000
 -0.049476  0.028565  0.000000     16.000000
 -0.049476  0.085694  0.000000     16.000000
  0.019790 -0.068556  0.000000     16.000000
 -0.049476  0.051417  0.000000     16.000000
 


--------------------------------------------------------------------------------------------------------




 Dimension of arrays:
   k-points           NKPTS =     54   k-points in BZ     NKDIM =     54   number of bands    NBANDS=    225
   number of dos      NEDOS =    301   number of ions     NIONS =     41
   non local maximal  LDIM  =      6   non local SUM 2l+1 LMDIM =     18
   total plane-waves  NPLWV = 190512
   max r-space proj   IRMAX =   2088   max aug-charges    IRDMAX=   8786
   dimension x,y,z NGX =    42 NGY =   42 NGZ =  108
   dimension x,y,z NGXF=    84 NGYF=   84 NGZF=  216
   support grid    NGXF=    84 NGYF=   84 NGZF=  216
   ions per type =              36   2   3
 NGX,Y,Z   is equivalent  to a cutoff of   8.29,  8.29,  8.21 a.u.
 NGXF,Y,Z  is equivalent  to a cutoff of  16.58, 16.58, 16.41 a.u.


 I would recommend the setting:
   dimension x,y,z NGX =    41 NGY =   41 NGZ =  107
 SYSTEM =  unknown system                          
 POSCAR =  Pt  C  H                                

 Startparameter for this run:
   NWRITE =      2    write-flag & timer
   PREC   = normal    normal or accurate (medium, high low for compatibility)
   ISTART =      0    job   : 0-new  1-cont  2-samecut
   ICHARG =      2    charge: 1-file 2-atom 10-const
   ISPIN  =      1    spin polarized calculation?
   LNONCOLLINEAR =      F non collinear calculations
   LSORBIT =      F    spin-orbit coupling
   INIWAV =      1    electr: 0-lowe 1-rand  2-diag
   LASPH  =      F    aspherical Exc in radial PAW
   METAGGA=      F    non-selfconsistent MetaGGA calc.

 Electronic Relaxation 1
   ENCUT  =  400.0 eV  29.40 Ry    5.42 a.u.  13.73 13.73 35.67*2*pi/ulx,y,z
   ENINI  =  400.0     initial cutoff
   ENAUG  =  644.9 eV  augmentation charge cutoff
   NELM   =     60;   NELMIN=  4; NELMDL= -4     # of ELM steps 
   EDIFF  = 0.1E-05   stopping-criterion for ELM
   LREAL  =      T    real-space projection
   NLSPLINE    = F    spline interpolate recip. space projectors
   LCOMPAT=      F    compatible to vasp.4.4
   GGA_COMPAT  = T    GGA compatible to vasp.4.4-vasp.4.6
   LMAXPAW     = -100 max onsite density
   LMAXMIX     =    2 max onsite mixed and CHGCAR
   VOSKOWN=      0    Vosko Wilk Nusair interpolation
   ROPT   =   -0.00050  -0.00050  -0.00050
 Ionic relaxation
   EDIFFG = 0.1E-04   stopping-criterion for IOM
   NSW    =      0    number of steps for IOM
   NBLOCK =      1;   KBLOCK =      1    inner block; outer block 
   IBRION =     -1    ionic relax: 0-MD 1-quasi-New 2-CG
   NFREE  =      0    steps in history (QN), initial steepest desc. (CG)
   ISIF   =      2    stress and relaxation
   IWAVPR =     10    prediction:  0-non 1-charg 2-wave 3-comb
   ISYM   =      2    0-nonsym 1-usesym 2-fastsym
   LCORR  =      T    Harris-Foulkes like correction to forces

   POTIM  = 0.5000    time-step for ionic-motion
   TEIN   =    0.0    initial temperature
   TEBEG  =    0.0;   TEEND  =   0.0 temperature during run
   SMASS  =  -3.00    Nose mass-parameter (am)
   estimated Nose-frequenzy (Omega)   =  0.10E-29 period in steps =****** mass=  -0.162E-26a.u.
   SCALEE = 1.0000    scale energy and forces
   NPACO  =    256;   APACO  = 16.0  distance and # of slots for P.C.
   PSTRESS=    0.0 pullay stress

  Mass of Ions in am
   POMASS = 195.08 12.01  1.00
  Ionic Valenz
   ZVAL   =  10.00  4.00  1.00
  Atomic Wigner-Seitz radii
   RWIGS  =  -1.00 -1.00 -1.00
  virtual crystal weights 
   VCA    =   1.00  1.00  1.00
   NELECT =     371.0000    total number of electrons
   NUPDOWN=      -1.0000    fix difference up-down

 DOS related values:
   EMIN   =  10.00;   EMAX   =-10.00  energy-range for DOS
   EFERMI =   0.00
   ISMEAR =    -1;   SIGMA  =   0.10  broadening in eV -4-tet -1-fermi 0-gaus

 Electronic relaxation 2 (details)
   IALGO  =     68    algorithm
   LDIAG  =      T    sub-space diagonalisation (order eigenvalues)
   LSUBROT=      F    optimize rotation matrix (better conditioning)
   TURBO    =      0    0=normal 1=particle mesh
   IRESTART =      0    0=no restart 2=restart with 2 vectors
   NREBOOT  =      0    no. of reboots
   NMIN     =      0    reboot dimension
   EREF     =   0.00    reference energy to select bands
   IMIX   =      4    mixing-type and parameters
     AMIX     =   0.40;   BMIX     =  1.00
     AMIX_MAG =   1.60;   BMIX_MAG =  1.00
     AMIN     =   0.10
     WC   =   100.;   INIMIX=   1;  MIXPRE=   1;  MAXMIX= -45

 Intra band minimization:
   WEIMIN = 0.0000     energy-eigenvalue tresh-hold
   EBREAK =  0.11E-08  absolut break condition
   DEPER  =   0.30     relativ break condition  

   TIME   =   0.40     timestep for ELM

  volume/ion in A,a.u.               =      32.77       221.16
  Fermi-wavevector in a.u.,A,eV,Ry     =   1.066024  2.014494 15.461772  1.136408
  Thomas-Fermi vector in A             =   2.201595
 
 Write flags
   LWAVE  =      F    write WAVECAR
   LCHARG =      F    write CHGCAR
   LVTOT  =      F    write LOCPOT, total local potential
   LVHAR  =      F    write LOCPOT, Hartree potential only
   LELF   =      F    write electronic localiz. function (ELF)
   LORBIT =      0    0 simple, 1 ext, 2 COOP (PROOUT)


 Dipole corrections
   LMONO  =      F    monopole corrections only (constant potential shift)
   LDIPOL =      F    correct potential (dipole corrections)
   IDIPOL =      0    1-x, 2-y, 3-z, 4-all directions 
   EPSILON=  1.0000000 bulk dielectric constant

 Exchange correlation treatment:
   GGA     =    PE    GGA type
   LEXCH   =     8    internal setting for exchange type
   VOSKOWN=      0    Vosko Wilk Nusair interpolation
   LHFCALC =     F    Hartree Fock is set to
   LHFONE  =     F    Hartree Fock one center treatment
   AEXX    =    0.0000 exact exchange contribution

 Linear response parameters
   LEPSILON=     F    determine dielectric tensor
   LRPA    =     F    only Hartree local field effects (RPA)
   LNABLA  =     F    use nabla operator in PAW spheres
   LVEL    =     F    velocity operator in full k-point grid
   LINTERFAST=   F  fast interpolation
   KINTER  =     0    interpolate to denser k-point grid
   CSHIFT  =0.1000    complex shift for real part using Kramers Kronig
   OMEGAMAX=  -1.0    maximum frequency
   DEG_THRESHOLD= 0.2000000E-02 threshold for treating states as degnerate
   RTIME   =    0.100 relaxation time in fs

 Orbital magnetization related:
   ORBITALMAG=     F  switch on orbital magnetization
   LCHIMAG   =     F  perturbation theory with respect to B field
   DQ        =  0.001000  dq finite difference perturbation B field



--------------------------------------------------------------------------------------------------------


 Static calculation
 charge density and potential will be updated during run
 non-spin polarized calculation
 RMM-DIIS sequential band-by-band and
  variant of blocked Davidson during initial phase
 perform sub-space diagonalisation
    before iterative eigenvector-optimisation
 modified Broyden-mixing scheme, WC =      100.0
 initial mixing is a Kerker type mixing with AMIX =  0.4000 and BMIX =      1.0000
 Hartree-type preconditioning will be used
 using additional bands           39
 real space projection scheme for non local part
 use partial core corrections
 calculate Harris-corrections to forces 
   (improved forces if not selfconsistent)
 use gradient corrections 
 use of overlap-Matrix (Vanderbilt PP)
 Fermi-smearing in eV        SIGMA  =   0.10


--------------------------------------------------------------------------------------------------------


  energy-cutoff  :      400.00
  volume of cell :     1343.68
      direct lattice vectors                 reciprocal lattice vectors
     8.421641764  0.000000000  0.000000000     0.118741693 -0.068555548  0.000000000
     4.210820882  7.293355709  0.000000000     0.000000000  0.137111097  0.000000000
     0.000000000  0.000000000 21.876241706     0.000000000  0.000000000  0.045711691

  length of vectors
     8.421641764  8.421641764 21.876241706     0.137111097  0.137111097  0.045711691


 
 k-points in units of 2pi/SCALE and weight: KPOINTS created by Atomic Simulation Env
   0.00989514  0.00571296  0.00000000       0.019
   0.00000000  0.01142592  0.00000000       0.019
  -0.00989514  0.00571296  0.00000000       0.019
   0.02968542 -0.00571296  0.00000000       0.019
   0.01979028  0.02285185  0.00000000       0.019
  -0.00989514  0.02856481  0.00000000       0.019
   0.01979028 -0.02285185  0.00000000       0.019
  -0.00989514 -0.02856481  0.00000000       0.019
  -0.02968542 -0.00571296  0.00000000       0.019
   0.04947571 -0.01713889  0.00000000       0.019
   0.03958056  0.03427777  0.00000000       0.019
  -0.00989514  0.05141666  0.00000000       0.019
   0.03958056 -0.03427777  0.00000000       0.019
  -0.00989514 -0.05141666  0.00000000       0.019
  -0.04947571 -0.01713889  0.00000000       0.019
  -0.04947571  0.03999074  0.00000000       0.019
   0.05937085 -0.09140740  0.00000000       0.019
  -0.00989514  0.07426851  0.00000000       0.019
   0.05937085 -0.04570370  0.00000000       0.019
  -0.00989514  0.06284259  0.00000000       0.019
   0.04947571  0.03999074  0.00000000       0.019
  -0.02968542  0.02856481  0.00000000       0.019
  -0.03958056 -0.01142592  0.00000000       0.019
  -0.00989514 -0.03999074  0.00000000       0.019
  -0.03958056  0.01142592  0.00000000       0.019
  -0.00989514  0.03999074  0.00000000       0.019
   0.02968542  0.02856481  0.00000000       0.019
  -0.00989514  0.01713889  0.00000000       0.019
  -0.01979028  0.00000000  0.00000000       0.019
  -0.00989514 -0.01713889  0.00000000       0.019
   0.02968542  0.01713889  0.00000000       0.019
   0.00000000  0.03427777  0.00000000       0.019
  -0.02968542  0.01713889  0.00000000       0.019
   0.04947571  0.00571296  0.00000000       0.019
   0.01979028  0.04570370  0.00000000       0.019
  -0.02968542  0.03999074  0.00000000       0.019
   0.01979028 -0.04570370  0.00000000       0.019
  -0.02968542 -0.03999074  0.00000000       0.019
  -0.04947571  0.00571296  0.00000000       0.019
  -0.04947571  0.06284259  0.00000000       0.019
   0.03958056 -0.07998147  0.00000000       0.019
  -0.02968542  0.06284259  0.00000000       0.019
   0.03958056 -0.05712962  0.00000000       0.019
  -0.02968542  0.07426851  0.00000000       0.019
   0.04947571 -0.07426851  0.00000000       0.019
  -0.02968542  0.05141666  0.00000000       0.019
   0.05937085 -0.06855555  0.00000000       0.019
  -0.02968542  0.08569444  0.00000000       0.019
   0.04947571  0.02856481  0.00000000       0.019
   0.00000000  0.05712962  0.00000000       0.019
  -0.04947571  0.02856481  0.00000000       0.019
  -0.04947571  0.08569444  0.00000000       0.019
   0.01979028 -0.06855555  0.00000000       0.019
  -0.04947571  0.05141666  0.00000000       0.019
 
 k-points in reciprocal lattice and weights: KPOINTS created by Atomic Simulation Env
   0.08333333  0.08333333  0.00000000       0.019
   0.00000000  0.08333333  0.00000000       0.019
  -0.08333333  0.00000000  0.00000000       0.019
   0.25000000  0.08333333  0.00000000       0.019
   0.16666667  0.25000000  0.00000000       0.019
  -0.08333333  0.16666667  0.00000000       0.019
   0.16666667 -0.08333333  0.00000000       0.019
  -0.08333333 -0.25000000  0.00000000       0.019
  -0.25000000 -0.16666667  0.00000000       0.019
   0.41666667  0.08333333  0.00000000       0.019
   0.33333333  0.41666667  0.00000000       0.019
  -0.08333333  0.33333333  0.00000000       0.019
   0.33333333 -0.08333333  0.00000000       0.019
  -0.08333333 -0.41666667  0.00000000       0.019
  -0.41666667 -0.33333333  0.00000000       0.019
  -0.41666667  0.08333333  0.00000000       0.019
   0.50000000 -0.41666667  0.00000000       0.019
  -0.08333333  0.50000000  0.00000000       0.019
   0.50000000 -0.08333333  0.00000000       0.019
  -0.08333333  0.41666667  0.00000000       0.019
   0.41666667  0.50000000  0.00000000       0.019
  -0.25000000  0.08333333  0.00000000       0.019
  -0.33333333 -0.25000000  0.00000000       0.019
  -0.08333333 -0.33333333  0.00000000       0.019
  -0.33333333 -0.08333333  0.00000000       0.019
  -0.08333333  0.25000000  0.00000000       0.019
   0.25000000  0.33333333  0.00000000       0.019
  -0.08333333  0.08333333  0.00000000       0.019
  -0.16666667 -0.08333333  0.00000000       0.019
  -0.08333333 -0.16666667  0.00000000       0.019
   0.25000000  0.25000000  0.00000000       0.019
   0.00000000  0.25000000  0.00000000       0.019
  -0.25000000  0.00000000  0.00000000       0.019
   0.41666667  0.25000000  0.00000000       0.019
   0.16666667  0.41666667  0.00000000       0.019
  -0.25000000  0.16666667  0.00000000       0.019
   0.16666667 -0.25000000  0.00000000       0.019
  -0.25000000 -0.41666667  0.00000000       0.019
  -0.41666667 -0.16666667  0.00000000       0.019
  -0.41666667  0.25000000  0.00000000       0.019
   0.33333333 -0.41666667  0.00000000       0.019
  -0.25000000  0.33333333  0.00000000       0.019
   0.33333333 -0.25000000  0.00000000       0.019
  -0.25000000  0.41666667  0.00000000       0.019
   0.41666667 -0.33333333  0.00000000       0.019
  -0.25000000  0.25000000  0.00000000       0.019
   0.50000000 -0.25000000  0.00000000       0.019
  -0.25000000  0.50000000  0.00000000       0.019
   0.41666667  0.41666667  0.00000000       0.019
   0.00000000  0.41666667  0.00000000       0.019
  -0.41666667 -0.00000000  0.00000000       0.019
  -0.41666667  0.41666667  0.00000000       0.019
   0.16666667 -0.41666667  0.00000000       0.019
  -0.41666667  0.16666667  0.00000000       0.019
 
 position of ions in fractional coordinates (direct lattice) 
   0.00000000  0.00000000  0.34283768
   0.33333333  0.00000000  0.34283768
   0.66666667  0.00000000  0.34283768
   0.00000000  0.33333333  0.34283768
   0.33333333  0.33333333  0.34283768
   0.66666667  0.33333333  0.34283768
   0.00000000  0.66666667  0.34283768
   0.33333333  0.66666667  0.34283768
   0.66666667  0.66666667  0.34283768
   0.11111111  0.11111111  0.44761256
   0.44444444  0.11111111  0.44761256
   0.77777778  0.11111111  0.44761256
   0.11111111  0.44444444  0.44761256
   0.44444444  0.44444444  0.44761256
   0.77777778  0.44444444  0.44761256
   0.11111111  0.77777778  0.44761256
   0.44444444  0.77777778  0.44761256
   0.77777778  0.77777778  0.44761256
   0.88790222  0.22121765  0.55213218
   0.22358615  0.22081049  0.55197618
   0.55640685  0.21988459  0.55223492
   0.88990368  0.55329080  0.55132647
   0.22395618  0.55048403  0.55254880
   0.55769119  0.55138906  0.55206664
   0.88721118  0.88748435  0.55258314
   0.22266797  0.88596527  0.54973665
   0.55756456  0.88701746  0.55189827
   0.00390818  0.99421236  0.65572891
   0.33242872  0.99195314  0.65497058
   0.66680215  0.99803322  0.66273322
   0.00384358  0.32912564  0.65670864
   0.33739996  0.32656769  0.66286060
   0.67347341  0.33383433  0.66170596
   0.00243905  0.66215710  0.65684742
   0.33398374  0.66376386  0.65568232
   0.66943695  0.66381797  0.65655716
   0.52119926  0.18128566  0.73155188
   0.61785212  0.27910450  0.75001914
   0.46771759  0.12489046  0.76608797
   0.53217288  0.41018857  0.77374261
   0.74795166  0.19438634  0.77434508
 
 position of ions in cartesian coordinates  (Angst):
   0.00000000  0.00000000  7.50000000
   2.80721392  0.00000000  7.50000000
   5.61442784  0.00000000  7.50000000
   1.40360696  2.43111857  7.50000000
   4.21082088  2.43111857  7.50000000
   7.01803480  2.43111857  7.50000000
   2.80721392  4.86223714  7.50000000
   5.61442784  4.86223714  7.50000000
   8.42164176  4.86223714  7.50000000
   1.40360696  0.81037286  9.79208057
   4.21082088  0.81037286  9.79208057
   7.01803480  0.81037286  9.79208057
   2.80721392  3.24149143  9.79208057
   5.61442784  3.24149143  9.79208057
   8.42164176  3.24149143  9.79208057
   4.21082088  5.67261000  9.79208057
   7.01803480  5.67261000  9.79208057
   9.82524872  5.67261000  9.79208057
   8.40910235  1.61341900 12.07857702
   2.81275584  1.61044943 12.07516431
   5.61175382  1.60369655 12.08082469
   9.82425841  4.03534661 12.06095115
   4.20406839  4.01487583 12.08769110
   7.01847596  4.02147652 12.07714330
  11.20881237  6.47273904 12.08844242
   5.60587092  6.46165986 12.02617179
   8.43068064  6.46933385 12.07346002
   4.21936344  7.25114439 14.34488412
   6.97653258  7.23466706 14.32829478
   9.81810798  7.27901127 14.49811204
   1.41825835  2.40043034 14.36631683
   4.21657969  2.38177436 14.50089878
   7.07746833  2.43477249 14.47563945
   2.80876574  4.82934726 14.36935289
   5.60768213  4.84106595 14.34386489
   8.43297671  4.84146058 14.36300302
   5.15271487  1.32218078 16.00360578
   6.37858829  2.03560838 16.40759995
   4.46484132  0.91087055 16.75912569
   6.20899996  2.99165111 16.92658029
   7.11750698  1.41772873 16.93976006
 


--------------------------------------------------------------------------------------------------------


 k-point  1 :   0.0833 0.0833 0.0000  plane waves:   24413
 k-point  2 :   0.0000 0.0833 0.0000  plane waves:   24413
 k-point  3 :  -0.0833 0.0000 0.0000  plane waves:   24413
 k-point  4 :   0.2500 0.0833 0.0000  plane waves:   24407
 k-point  5 :   0.1667 0.2500 0.0000  plane waves:   24407
 k-point  6 :  -0.0833 0.1667 0.0000  plane waves:   24407
 k-point  7 :   0.1667-0.0833 0.0000  plane waves:   24407
 k-point  8 :  -0.0833-0.2500 0.0000  plane waves:   24407
 k-point  9 :  -0.2500-0.1667 0.0000  plane waves:   24407
 k-point 10 :   0.4167 0.0833 0.0000  plane waves:   24416
 k-point 11 :   0.3333 0.4167 0.0000  plane waves:   24416
 k-point 12 :  -0.0833 0.3333 0.0000  plane waves:   24416
 k-point 13 :   0.3333-0.0833 0.0000  plane waves:   24416
 k-point 14 :  -0.0833-0.4167 0.0000  plane waves:   24416
 k-point 15 :  -0.4167-0.3333 0.0000  plane waves:   24416
 k-point 16 :  -0.4167 0.0833 0.0000  plane waves:   24418
 k-point 17 :   0.5000-0.4167 0.0000  plane waves:   24418
 k-point 18 :  -0.0833 0.5000 0.0000  plane waves:   24418
 k-point 19 :   0.5000-0.0833 0.0000  plane waves:   24418
 k-point 20 :  -0.0833 0.4167 0.0000  plane waves:   24418
 k-point 21 :   0.4167 0.5000 0.0000  plane waves:   24418
 k-point 22 :  -0.2500 0.0833 0.0000  plane waves:   24416
 k-point 23 :  -0.3333-0.2500 0.0000  plane waves:   24416
 k-point 24 :  -0.0833-0.3333 0.0000  plane waves:   24416
 k-point 25 :  -0.3333-0.0833 0.0000  plane waves:   24416
 k-point 26 :  -0.0833 0.2500 0.0000  plane waves:   24416
 k-point 27 :   0.2500 0.3333 0.0000  plane waves:   24416
 k-point 28 :  -0.0833 0.0833 0.0000  plane waves:   24411
 k-point 29 :  -0.1667-0.0833 0.0000  plane waves:   24411
 k-point 30 :  -0.0833-0.1667 0.0000  plane waves:   24411
 k-point 31 :   0.2500 0.2500 0.0000  plane waves:   24440
 k-point 32 :   0.0000 0.2500 0.0000  plane waves:   24440
 k-point 33 :  -0.2500 0.0000 0.0000  plane waves:   24440
 k-point 34 :   0.4167 0.2500 0.0000  plane waves:   24406
 k-point 35 :   0.1667 0.4167 0.0000  plane waves:   24406
 k-point 36 :  -0.2500 0.1667 0.0000  plane waves:   24406
 k-point 37 :   0.1667-0.2500 0.0000  plane waves:   24406
 k-point 38 :  -0.2500-0.4167 0.0000  plane waves:   24406
 k-point 39 :  -0.4167-0.1667 0.0000  plane waves:   24406
 k-point 40 :  -0.4167 0.2500 0.0000  plane waves:   24402
 k-point 41 :   0.3333-0.4167 0.0000  plane waves:   24402
 k-point 42 :  -0.2500 0.3333 0.0000  plane waves:   24402
 k-point 43 :   0.3333-0.2500 0.0000  plane waves:   24402
 k-point 44 :  -0.2500 0.4167 0.0000  plane waves:   24402
 k-point 45 :   0.4167-0.3333 0.0000  plane waves:   24402
 k-point 46 :  -0.2500 0.2500 0.0000  plane waves:   24390
 k-point 47 :   0.5000-0.2500 0.0000  plane waves:   24390
 k-point 48 :  -0.2500 0.5000 0.0000  plane waves:   24390
 k-point 49 :   0.4167 0.4167 0.0000  plane waves:   24430
 k-point 50 :   0.0000 0.4167 0.0000  plane waves:   24430
 k-point 51 :  -0.4167-0.0000 0.0000  plane waves:   24430
 k-point 52 :  -0.4167 0.4167 0.0000  plane waves:   24404
 k-point 53 :   0.1667-0.4167 0.0000  plane waves:   24404
 k-point 54 :  -0.4167 0.1667 0.0000  plane waves:   24404

 maximum and minimum number of plane-waves per node :      6146     6048

 maximum number of plane-waves:     24440
 maximum index in each direction: 
   IXMAX=   14   IYMAX=   14   IZMAX=   35
   IXMIN=  -14   IYMIN=  -14   IZMIN=  -35

 WARNING: aliasing errors must be expected set NGX to  58 to avoid them
 WARNING: aliasing errors must be expected set NGY to  58 to avoid them
 WARNING: aliasing errors must be expected set NGZ to 142 to avoid them
 aliasing errors are usually negligible using standard VASP settings
 and one can safely disregard these warnings

 real space projection operators:
  total allocation   :      10295.80 KBytes
  max/ min on nodes  :       2715.78       2453.80


 parallel 3D FFT for wavefunctions:
    minimum data exchange during FFTs selected (reduces bandwidth)
 parallel 3D FFT for charge:
    minimum data exchange during FFTs selected (reduces bandwidth)


 total amount of memory used by VASP on root node   292236. kBytes
========================================================================

   base      :      30000. kBytes
   nonlr-proj:       4775. kBytes
   fftplans  :       4497. kBytes
   grid      :       7849. kBytes
   one-center:        171. kBytes
   wavefun   :     244944. kBytes
 
     INWAV:  cpu time    0.0000: real time    0.0000
 Broyden mixing: mesh for mixing (old mesh)
   NGX = 27   NGY = 27   NGZ = 71
  (NGX  = 84   NGY  = 84   NGZ  =216)
  gives a total of  51759 points

 initial charge density was supplied:
 charge density of overlapping atoms calculated
 number of electron     371.0000000 magnetization 
 keeping initial charge density in first step


--------------------------------------------------------------------------------------------------------


 Maximum index for non-local projection operator          594
 Maximum index for augmentation-charges          861 (set IRDMAX)


--------------------------------------------------------------------------------------------------------


 First call to EWALD:  gamma=   0.161
 Maximum number of real-space cells 4x 4x 2
 Maximum number of reciprocal cells 2x 2x 5

 FEWALD executed in parallel
    FEWALD:  cpu time    0.0030: real time    0.0027


----------------------------------------- Iteration    1(   1)  ---------------------------------------


    POTLOK:  cpu time    0.2400: real time    0.2530
    SETDIJ:  cpu time    0.0100: real time    0.0094
     EDDAV:  cpu time   71.6851: real time   72.3274
       DOS:  cpu time    0.0020: real time    0.0027
    --------------------------------------------
      LOOP:  cpu time   71.9401: real time   72.6064

 eigenvalue-minimisations  : 24370
 total energy-change (2. order) : 0.2198858E+04  (-0.1468241E+05)
 number of electron     371.0000000 magnetization 
 augmentation part      371.0000000 magnetization 

 Free energy of the ion-electron system (eV)
  ---------------------------------------------------
  alpha Z        PSCENC =       958.22283780
  Ewald energy   TEWEN  =     91969.07086208
  -Hartree energ DENC   =   -120411.72989183
  -exchange      EXHF   =         0.00000000
  -V(xc)+E(xc)   XCENC  =       154.70503611
  PAW double counting   =     25283.89345048   -24266.86223937
  entropy T*S    EENTRO =        -0.56814079
  eigenvalues    EBANDS =      1932.40571088
  atomic energy  EATOM  =     26579.72061084
  Solvation  Ediel_sol  =         0.00000000
  ---------------------------------------------------
  free energy    TOTEN  =      2198.85823619 eV

  energy without entropy =     2199.42637698  energy(sigma->0) =     2199.14230659


--------------------------------------------------------------------------------------------------------




----------------------------------------- Iteration    1(   2)  ---------------------------------------


     EDDAV:  cpu time   90.4742: real time   91.2849
       DOS:  cpu time    0.0030: real time    0.0037
    --------------------------------------------
      LOOP:  cpu time   90.4792: real time   91.3532

 eigenvalue-minimisations  : 28450
 total energy-change (2. order) :-0.2291255E+04  (-0.2121849E+04)
 number of electron     371.0000000 magnetization 
 augmentation part      371.0000000 magnetization 

 Free energy of the ion-electron system (eV)
  ---------------------------------------------------
  alpha Z        PSCENC =       958.22283780
  Ewald energy   TEWEN  =     91969.07086208
  -Hartree energ DENC   =   -120411.72989183
  -exchange      EXHF   =         0.00000000
  -V(xc)+E(xc)   XCENC  =       154.70503611
  PAW double counting   =     25283.89345048   -24266.86223937
  entropy T*S    EENTRO =        -1.10504871
  eigenvalues    EBANDS =      -358.31227177
  atomic energy  EATOM  =     26579.72061084
  Solvation  Ediel_sol  =         0.00000000
  ---------------------------------------------------
  free energy    TOTEN  =       -92.39665438 eV

  energy without entropy =      -91.29160567  energy(sigma->0) =      -91.84413002


--------------------------------------------------------------------------------------------------------




----------------------------------------- Iteration    1(   3)  ---------------------------------------


     EDDAV:  cpu time   85.9119: real time   86.0984
       DOS:  cpu time    0.0030: real time    0.0033
    --------------------------------------------
      LOOP:  cpu time   85.9159: real time   86.2219

 eigenvalue-minimisations  : 29070
 total energy-change (2. order) :-0.1580604E+03  (-0.1434512E+03)
 number of electron     371.0000000 magnetization 
 augmentation part      371.0000000 magnetization 

 Free energy of the ion-electron system (eV)
  ---------------------------------------------------
  alpha Z        PSCENC =       958.22283780
  Ewald energy   TEWEN  =     91969.07086208
  -Hartree energ DENC   =   -120411.72989183
  -exchange      EXHF   =         0.00000000
  -V(xc)+E(xc)   XCENC  =       154.70503611
  PAW double counting   =     25283.89345048   -24266.86223937
  entropy T*S    EENTRO =        -1.89154565
  eigenvalues    EBANDS =      -515.58620889
  atomic energy  EATOM  =     26579.72061084
  Solvation  Ediel_sol  =         0.00000000
  ---------------------------------------------------
  free energy    TOTEN  =      -250.45708843 eV

  energy without entropy =     -248.56554278  energy(sigma->0) =     -249.51131561


--------------------------------------------------------------------------------------------------------




----------------------------------------- Iteration    1(   4)  ---------------------------------------


     EDDAV:  cpu time   90.5662: real time   90.6569
       DOS:  cpu time    0.0040: real time    0.0043
    CHARGE:  cpu time    2.2887: real time    2.3527
    MIXING:  cpu time    0.0020: real time    0.0021
    --------------------------------------------
      LOOP:  cpu time   92.8629: real time   93.0905

 eigenvalue-minimisations  : 30960
 total energy-change (2. order) :-0.6765446E+01  (-0.6561382E+01)
 number of electron     370.9999999 magnetization 
 augmentation part      104.5490053 magnetization 

 Broyden mixing:
  rms(total) = 0.63504E+01    rms(broyden)= 0.63503E+01
  rms(prec ) = 0.64779E+01
  weight for this iteration     100.00

 Free energy of the ion-electron system (eV)
  ---------------------------------------------------
  alpha Z        PSCENC =       958.22283780
  Ewald energy   TEWEN  =     91969.07086208
  -Hartree energ DENC   =   -120411.72989183
  -exchange      EXHF   =         0.00000000
  -V(xc)+E(xc)   XCENC  =       154.70503611
  PAW double counting   =     25283.89345048   -24266.86223937
  entropy T*S    EENTRO =        -1.94535970
  eigenvalues    EBANDS =      -522.29784108
  atomic energy  EATOM  =     26579.72061084
  Solvation  Ediel_sol  =         0.00000000
  ---------------------------------------------------
  free energy    TOTEN  =      -257.22253467 eV

  energy without entropy =     -255.27717497  energy(sigma->0) =     -256.24985482


--------------------------------------------------------------------------------------------------------




----------------------------------------- Iteration    1(   5)  ---------------------------------------


    POTLOK:  cpu time    0.0580: real time    0.0584
    SETDIJ:  cpu time    0.0090: real time    0.0091
    EDDIAG:  cpu time   10.8154: real time   10.8806
  RMM-DIIS:  cpu time   30.0964: real time   30.2402
    ORTHCH:  cpu time    3.0205: real time    3.0274
       DOS:  cpu time    0.0030: real time    0.0037
    CHARGE:  cpu time    2.3176: real time    2.3249
    MIXING:  cpu time    0.0020: real time    0.0022
    --------------------------------------------
      LOOP:  cpu time   46.3230: real time   46.5917

 eigenvalue-minimisations  : 25904
 total energy-change (2. order) : 0.1255328E+02  (-0.5770564E+01)
 number of electron     371.0000027 magnetization 
 augmentation part      111.4991135 magnetization 

 Broyden mixing:
  rms(total) = 0.43638E+01    rms(broyden)= 0.43636E+01
  rms(prec ) = 0.46444E+01
  weight for this iteration     100.00

 eigenvalues of (default mixing * dielectric matrix)
  average eigenvalue GAMMA=   1.2795
  1.2795

 Free energy of the ion-electron system (eV)
  ---------------------------------------------------
  alpha Z        PSCENC =       958.22283780
  Ewald energy   TEWEN  =     91969.07086208
  -Hartree energ DENC   =   -119970.17538024
  -exchange      EXHF   =         0.00000000
  -V(xc)+E(xc)   XCENC  =       146.25980722
  PAW double counting   =     28061.72402539   -27097.96900005
  entropy T*S    EENTRO =        -1.99986578
  eigenvalues    EBANDS =      -889.52314973
  atomic energy  EATOM  =     26579.72061084
  Solvation  Ediel_sol  =         0.00000000
  ---------------------------------------------------
  free energy    TOTEN  =      -244.66925247 eV

  energy without entropy =     -242.66938669  energy(sigma->0) =     -243.66931958


--------------------------------------------------------------------------------------------------------




----------------------------------------- Iteration    1(   6)  ---------------------------------------


    POTLOK:  cpu time    0.0550: real time    0.0549
    SETDIJ:  cpu time    0.0100: real time    0.0091
    EDDIAG:  cpu time   10.5884: real time   10.8534
  RMM-DIIS:  cpu time   28.2827: real time   28.7607
    ORTHCH:  cpu time    3.0265: real time    3.0390
       DOS:  cpu time    0.0030: real time    0.0034
    CHARGE:  cpu time    2.3536: real time    2.3520
    MIXING:  cpu time    0.0020: real time    0.0021
    --------------------------------------------
      LOOP:  cpu time   44.3223: real time   45.0971

 eigenvalue-minimisations  : 25671
 total energy-change (2. order) :-0.3854767E+02  (-0.7099526E+01)
 number of electron     370.9999971 magnetization 
 augmentation part      109.1519741 magnetization 

 Broyden mixing:
  rms(total) = 0.55280E+01    rms(broyden)= 0.55279E+01
  rms(prec ) = 0.67449E+01
  weight for this iteration     100.00

 eigenvalues of (default mixing * dielectric matrix)
  average eigenvalue GAMMA=   1.1052
  1.9289  0.2815

 Free energy of the ion-electron system (eV)
  ---------------------------------------------------
  alpha Z        PSCENC =       958.22283780
  Ewald energy   TEWEN  =     91969.07086208
  -Hartree energ DENC   =   -120297.44979351
  -exchange      EXHF   =         0.00000000
  -V(xc)+E(xc)   XCENC  =       144.13446529
  PAW double counting   =     30034.04134997   -29089.82295793
  entropy T*S    EENTRO =        -1.21389738
  eigenvalues    EBANDS =      -579.92039750
  atomic energy  EATOM  =     26579.72061084
  Solvation  Ediel_sol  =         0.00000000
  ---------------------------------------------------
  free energy    TOTEN  =      -283.21692033 eV

  energy without entropy =     -282.00302295  energy(sigma->0) =     -282.60997164


--------------------------------------------------------------------------------------------------------




----------------------------------------- Iteration    1(   7)  ---------------------------------------


    POTLOK:  cpu time    0.7039: real time    0.7048
    SETDIJ:  cpu time    0.0100: real time    0.0092
    EDDIAG:  cpu time   10.9193: real time   10.9963
  RMM-DIIS:  cpu time   29.5185: real time   30.0652
    ORTHCH:  cpu time    2.9795: real time    3.0088
       DOS:  cpu time    0.0040: real time    0.0035
    CHARGE:  cpu time    2.2687: real time    2.3448
    MIXING:  cpu time    0.0020: real time    0.0022
    --------------------------------------------
      LOOP:  cpu time   46.4079: real time   47.1783

 eigenvalue-minimisations  : 25135
 total energy-change (2. order) : 0.4012708E+02  (-0.2856779E+01)
 number of electron     370.9999998 magnetization 
 augmentation part      112.3567536 magnetization 

 Broyden mixing:
  rms(total) = 0.20198E+01    rms(broyden)= 0.20197E+01
  rms(prec ) = 0.26014E+01
  weight for this iteration     100.00

 eigenvalues of (default mixing * dielectric matrix)
  average eigenvalue GAMMA=   0.9665
  2.0236  0.5768  0.2992

 Free energy of the ion-electron system (eV)
  ---------------------------------------------------
  alpha Z        PSCENC =       958.22283780
  Ewald energy   TEWEN  =     91969.07086208
  -Hartree energ DENC   =   -120049.38033416
  -exchange      EXHF   =         0.00000000
  -V(xc)+E(xc)   XCENC  =       142.82583134
  PAW double counting   =     31745.47108497   -30822.73103813
  entropy T*S    EENTRO =        -1.77977511
  eigenvalues    EBANDS =      -764.50991499
  atomic energy  EATOM  =     26579.72061084
  Solvation  Ediel_sol  =         0.00000000
  ---------------------------------------------------
  free energy    TOTEN  =      -243.08983536 eV

  energy without entropy =     -241.31006025  energy(sigma->0) =     -242.19994780


--------------------------------------------------------------------------------------------------------




----------------------------------------- Iteration    1(   8)  ---------------------------------------


    POTLOK:  cpu time    0.0850: real time    0.0965
    SETDIJ:  cpu time    0.0450: real time    0.0708
    EDDIAG:  cpu time   10.8204: real time   10.8727
  RMM-DIIS:  cpu time   30.0654: real time   30.1692
    ORTHCH:  cpu time    3.0405: real time    3.0588
       DOS:  cpu time    0.0030: real time    0.0035
    CHARGE:  cpu time    2.3586: real time    2.3622
    MIXING:  cpu time    0.0020: real time    0.0023
    --------------------------------------------
      LOOP:  cpu time   46.4219: real time   46.6552

 eigenvalue-minimisations  : 25888
 total energy-change (2. order) :-0.1433579E+02  (-0.1750433E+01)
 number of electron     371.0000000 magnetization 
 augmentation part      112.0922022 magnetization 

 Broyden mixing:
  rms(total) = 0.37212E+01    rms(broyden)= 0.37210E+01
  rms(prec ) = 0.56537E+01
  weight for this iteration     100.00

 eigenvalues of (default mixing * dielectric matrix)
  average eigenvalue GAMMA=   0.8870
  2.1962  0.8979  0.2883  0.1654

 Free energy of the ion-electron system (eV)
  ---------------------------------------------------
  alpha Z        PSCENC =       958.22283780
  Ewald energy   TEWEN  =     91969.07086208
  -Hartree energ DENC   =   -120038.12233245
  -exchange      EXHF   =         0.00000000
  -V(xc)+E(xc)   XCENC  =       143.17127495
  PAW double counting   =     32078.82584663   -31158.54013993
  entropy T*S    EENTRO =        -1.29441588
  eigenvalues    EBANDS =      -788.48016617
  atomic energy  EATOM  =     26579.72061084
  Solvation  Ediel_sol  =         0.00000000
  ---------------------------------------------------
  free energy    TOTEN  =      -257.42562212 eV

  energy without entropy =     -256.13120624  energy(sigma->0) =     -256.77841418


--------------------------------------------------------------------------------------------------------




----------------------------------------- Iteration    1(   9)  ---------------------------------------


    POTLOK:  cpu time    1.5278: real time    1.5269
    SETDIJ:  cpu time    0.1190: real time    0.1190
    EDDIAG:  cpu time   10.6914: real time   10.7337
  RMM-DIIS:  cpu time   29.2925: real time   29.5626
    ORTHCH:  cpu time    2.9466: real time    2.9764
       DOS:  cpu time    0.0040: real time    0.0036
    CHARGE:  cpu time    2.2897: real time    2.2876
    MIXING:  cpu time    0.0020: real time    0.0026
    --------------------------------------------
      LOOP:  cpu time   46.8739: real time   47.2263

 eigenvalue-minimisations  : 25947
 total energy-change (2. order) : 0.1173924E+02  (-0.8509928E+00)
 number of electron     371.0000025 magnetization 
 augmentation part      112.2498834 magnetization 

 Broyden mixing:
  rms(total) = 0.25438E+01    rms(broyden)= 0.25436E+01
  rms(prec ) = 0.33442E+01
  weight for this iteration     100.00

 eigenvalues of (default mixing * dielectric matrix)
  average eigenvalue GAMMA=   0.7947
  2.3002  1.0143  0.2649  0.2649  0.1293

 Free energy of the ion-electron system (eV)
  ---------------------------------------------------
  alpha Z        PSCENC =       958.22283780
  Ewald energy   TEWEN  =     91969.07086208
  -Hartree energ DENC   =   -120052.88206105
  -exchange      EXHF   =         0.00000000
  -V(xc)+E(xc)   XCENC  =       143.40412783
  PAW double counting   =     32406.42077750   -31488.53509233
  entropy T*S    EENTRO =        -1.85076432
  eigenvalues    EBANDS =      -759.25767879
  atomic energy  EATOM  =     26579.72061084
  Solvation  Ediel_sol  =         0.00000000
  ---------------------------------------------------
  free energy    TOTEN  =      -245.68638044 eV

  energy without entropy =     -243.83561612  energy(sigma->0) =     -244.76099828


--------------------------------------------------------------------------------------------------------




----------------------------------------- Iteration    1(  10)  ---------------------------------------


    POTLOK:  cpu time    0.0570: real time    0.0577
    SETDIJ:  cpu time    0.0100: real time    0.0093
    EDDIAG:  cpu time   10.5514: real time   10.6628
  RMM-DIIS:  cpu time   28.1547: real time   28.5997
    ORTHCH:  cpu time    2.9995: real time    3.0248
       DOS:  cpu time    0.0040: real time    0.0037
    CHARGE:  cpu time    2.3636: real time    2.3718
    MIXING:  cpu time    0.0020: real time    0.0027
    --------------------------------------------
      LOOP:  cpu time   44.1433: real time   44.7450

 eigenvalue-minimisations  : 25055
 total energy-change (2. order) : 0.6470379E+01  (-0.3827701E+00)
 number of electron     371.0000010 magnetization 
 augmentation part      112.2771432 magnetization 

 Broyden mixing:
  rms(total) = 0.94609E+00    rms(broyden)= 0.94599E+00
  rms(prec ) = 0.11288E+01
  weight for this iteration     100.00

 eigenvalues of (default mixing * dielectric matrix)
  average eigenvalue GAMMA=   0.7180
  2.2067  1.0121  0.3273  0.3273  0.3143  0.1200

 Free energy of the ion-electron system (eV)
  ---------------------------------------------------
  alpha Z        PSCENC =       958.22283780
  Ewald energy   TEWEN  =     91969.07086208
  -Hartree energ DENC   =   -120065.88344552
  -exchange      EXHF   =         0.00000000
  -V(xc)+E(xc)   XCENC  =       143.48875603
  PAW double counting   =     32605.87113123   -31689.70524048
  entropy T*S    EENTRO =        -1.99653688
  eigenvalues    EBANDS =      -738.00497624
  atomic energy  EATOM  =     26579.72061084
  Solvation  Ediel_sol  =         0.00000000
  ---------------------------------------------------
  free energy    TOTEN  =      -239.21600114 eV

  energy without entropy =     -237.21946426  energy(sigma->0) =     -238.21773270


--------------------------------------------------------------------------------------------------------




----------------------------------------- Iteration    1(  11)  ---------------------------------------


    POTLOK:  cpu time    0.3459: real time    0.3462
    SETDIJ:  cpu time    0.0730: real time    0.0728
    EDDIAG:  cpu time   10.9103: real time   11.0262
  RMM-DIIS:  cpu time   28.9816: real time   29.2233
    ORTHCH:  cpu time    2.9975: real time    3.0295
       DOS:  cpu time    0.0030: real time    0.0036
    CHARGE:  cpu time    2.3016: real time    2.2996
    MIXING:  cpu time    0.0840: real time    0.0836
    --------------------------------------------
      LOOP:  cpu time   45.6991: real time   46.1593

 eigenvalue-minimisations  : 25695
 total energy-change (2. order) : 0.5327819E+00  (-0.9449288E-01)
 number of electron     371.0000009 magnetization 
 augmentation part      112.2331728 magnetization 

 Broyden mixing:
  rms(total) = 0.54601E+00    rms(broyden)= 0.54598E+00
  rms(prec ) = 0.64421E+00
  weight for this iteration     100.00

 eigenvalues of (default mixing * dielectric matrix)
  average eigenvalue GAMMA=   0.6841
  2.1169  0.9981  0.5058  0.5058  0.2705  0.2705  0.1213

 Free energy of the ion-electron system (eV)
  ---------------------------------------------------
  alpha Z        PSCENC =       958.22283780
  Ewald energy   TEWEN  =     91969.07086208
  -Hartree energ DENC   =   -120069.04847711
  -exchange      EXHF   =         0.00000000
  -V(xc)+E(xc)   XCENC  =       143.63799256
  PAW double counting   =     32522.05382865   -31604.74302176
  entropy T*S    EENTRO =        -2.07557805
  eigenvalues    EBANDS =      -735.52227431
  atomic energy  EATOM  =     26579.72061084
  Solvation  Ediel_sol  =         0.00000000
  ---------------------------------------------------
  free energy    TOTEN  =      -238.68321929 eV

  energy without entropy =     -236.60764124  energy(sigma->0) =     -237.64543027


--------------------------------------------------------------------------------------------------------




----------------------------------------- Iteration    1(  12)  ---------------------------------------


    POTLOK:  cpu time    0.9349: real time    1.4494
    SETDIJ:  cpu time    0.0090: real time    0.0093
    EDDIAG:  cpu time   10.5654: real time   10.7497
  RMM-DIIS:  cpu time   29.9744: real time   30.2611
    ORTHCH:  cpu time    2.9835: real time    3.1143
       DOS:  cpu time    0.0030: real time    0.0037
    CHARGE:  cpu time    2.2867: real time    2.3207
    MIXING:  cpu time    0.0030: real time    0.0029
    --------------------------------------------
      LOOP:  cpu time   46.7609: real time   47.9451

 eigenvalue-minimisations  : 26391
 total energy-change (2. order) : 0.1341093E+00  (-0.2550610E-01)
 number of electron     371.0000011 magnetization 
 augmentation part      112.1621931 magnetization 

 Broyden mixing:
  rms(total) = 0.36717E+00    rms(broyden)= 0.36715E+00
  rms(prec ) = 0.42409E+00
  weight for this iteration     100.00

 eigenvalues of (default mixing * dielectric matrix)
  average eigenvalue GAMMA=   0.6991
  2.1462  0.8927  0.7882  0.7882  0.2968  0.2968  0.2623  0.1214

 Free energy of the ion-electron system (eV)
  ---------------------------------------------------
  alpha Z        PSCENC =       958.22283780
  Ewald energy   TEWEN  =     91969.07086208
  -Hartree energ DENC   =   -120075.13022245
  -exchange      EXHF   =         0.00000000
  -V(xc)+E(xc)   XCENC  =       143.77546224
  PAW double counting   =     32450.89104009   -31532.63153509
  entropy T*S    EENTRO =        -2.08788156
  eigenvalues    EBANDS =      -730.38028391
  atomic energy  EATOM  =     26579.72061084
  Solvation  Ediel_sol  =         0.00000000
  ---------------------------------------------------
  free energy    TOTEN  =      -238.54910996 eV

  energy without entropy =     -236.46122840  energy(sigma->0) =     -237.50516918


--------------------------------------------------------------------------------------------------------




----------------------------------------- Iteration    1(  13)  ---------------------------------------


    POTLOK:  cpu time    0.6429: real time    0.7538
    SETDIJ:  cpu time    0.0100: real time    0.0093
    EDDIAG:  cpu time   10.8903: real time   10.8823
  RMM-DIIS:  cpu time   28.9056: real time   29.0358
    ORTHCH:  cpu time    2.8906: real time    2.9438
       DOS:  cpu time    0.0030: real time    0.0036
    CHARGE:  cpu time    2.3556: real time    2.3539
    MIXING:  cpu time    0.0030: real time    0.0030
    --------------------------------------------
      LOOP:  cpu time   45.7021: real time   46.1046

 eigenvalue-minimisations  : 25622
 total energy-change (2. order) : 0.5646711E-01  (-0.1359389E-01)
 number of electron     371.0000008 magnetization 
 augmentation part      112.1255775 magnetization 

 Broyden mixing:
  rms(total) = 0.21809E+00    rms(broyden)= 0.21807E+00
  rms(prec ) = 0.24221E+00
  weight for this iteration     100.00

 eigenvalues of (default mixing * dielectric matrix)
  average eigenvalue GAMMA=   0.7504
  2.1796  1.2441  1.2441  0.7579  0.3867  0.1214  0.2891  0.2891  0.2415

 Free energy of the ion-electron system (eV)
  ---------------------------------------------------
  alpha Z        PSCENC =       958.22283780
  Ewald energy   TEWEN  =     91969.07086208
  -Hartree energ DENC   =   -120086.57449932
  -exchange      EXHF   =         0.00000000
  -V(xc)+E(xc)   XCENC  =       143.80915205
  PAW double counting   =     32460.00883806   -31541.86656480
  entropy T*S    EENTRO =        -2.08243507
  eigenvalues    EBANDS =      -718.80144449
  atomic energy  EATOM  =     26579.72061084
  Solvation  Ediel_sol  =         0.00000000
  ---------------------------------------------------
  free energy    TOTEN  =      -238.49264285 eV

  energy without entropy =     -236.41020778  energy(sigma->0) =     -237.45142531


--------------------------------------------------------------------------------------------------------




----------------------------------------- Iteration    1(  14)  ---------------------------------------


    POTLOK:  cpu time    0.0570: real time    0.0580
    SETDIJ:  cpu time    0.0090: real time    0.0093
    EDDIAG:  cpu time   10.9523: real time   10.9639
  RMM-DIIS:  cpu time   30.1294: real time   30.2046
    ORTHCH:  cpu time    3.1235: real time    3.1316
       DOS:  cpu time    0.0040: real time    0.0037
    CHARGE:  cpu time    2.3386: real time    2.3373
    MIXING:  cpu time    0.0030: real time    0.0031
    --------------------------------------------
      LOOP:  cpu time   46.6199: real time   46.7340

 eigenvalue-minimisations  : 25942
 total energy-change (2. order) : 0.1026840E-01  (-0.7259149E-02)
 number of electron     371.0000006 magnetization 
 augmentation part      112.0796579 magnetization 

 Broyden mixing:
  rms(total) = 0.17110E+00    rms(broyden)= 0.17109E+00
  rms(prec ) = 0.22258E+00
  weight for this iteration     100.00

 eigenvalues of (default mixing * dielectric matrix)
  average eigenvalue GAMMA=   0.7288
  2.0928  1.3878  1.3878  0.7293  0.4674  0.1214  0.2972  0.2972  0.2538  0.2538

 Free energy of the ion-electron system (eV)
  ---------------------------------------------------
  alpha Z        PSCENC =       958.22283780
  Ewald energy   TEWEN  =     91969.07086208
  -Hartree energ DENC   =   -120101.93430070
  -exchange      EXHF   =         0.00000000
  -V(xc)+E(xc)   XCENC  =       143.89195092
  PAW double counting   =     32459.66928371   -31541.49296995
  entropy T*S    EENTRO =        -2.07996448
  eigenvalues    EBANDS =      -703.55068467
  atomic energy  EATOM  =     26579.72061084
  Solvation  Ediel_sol  =         0.00000000
  ---------------------------------------------------
  free energy    TOTEN  =      -238.48237445 eV

  energy without entropy =     -236.40240997  energy(sigma->0) =     -237.44239221


--------------------------------------------------------------------------------------------------------




----------------------------------------- Iteration    1(  15)  ---------------------------------------


    POTLOK:  cpu time    0.6199: real time    0.8488
    SETDIJ:  cpu time    0.0350: real time    0.0346
    EDDIAG:  cpu time   10.9803: real time   10.9835
  RMM-DIIS:  cpu time   29.7135: real time   29.6988
    ORTHCH:  cpu time    3.0675: real time    3.0963
       DOS:  cpu time    0.0030: real time    0.0037
    CHARGE:  cpu time    2.3186: real time    2.3179
    MIXING:  cpu time    0.0040: real time    0.0033
    --------------------------------------------
      LOOP:  cpu time   46.7439: real time   47.1074

 eigenvalue-minimisations  : 25925
 total energy-change (2. order) : 0.2207798E-01  (-0.1263747E-02)
 number of electron     371.0000007 magnetization 
 augmentation part      112.0638289 magnetization 

 Broyden mixing:
  rms(total) = 0.10271E+00    rms(broyden)= 0.10271E+00
  rms(prec ) = 0.13513E+00
  weight for this iteration     100.00

 eigenvalues of (default mixing * dielectric matrix)
  average eigenvalue GAMMA=   0.7508
  2.0187  2.0187  1.2509  0.6430  0.6430  0.4351  0.1214  0.2933  0.2933  0.3003
  0.2409

 Free energy of the ion-electron system (eV)
  ---------------------------------------------------
  alpha Z        PSCENC =       958.22283780
  Ewald energy   TEWEN  =     91969.07086208
  -Hartree energ DENC   =   -120106.63412233
  -exchange      EXHF   =         0.00000000
  -V(xc)+E(xc)   XCENC  =       143.94827635
  PAW double counting   =     32444.34946462   -31525.94034832
  entropy T*S    EENTRO =        -2.08478123
  eigenvalues    EBANDS =      -699.11309627
  atomic energy  EATOM  =     26579.72061084
  Solvation  Ediel_sol  =         0.00000000
  ---------------------------------------------------
  free energy    TOTEN  =      -238.46029646 eV

  energy without entropy =     -236.37551523  energy(sigma->0) =     -237.41790585


--------------------------------------------------------------------------------------------------------




----------------------------------------- Iteration    1(  16)  ---------------------------------------


    POTLOK:  cpu time    0.0570: real time    0.0588
    SETDIJ:  cpu time    0.0100: real time    0.0093
    EDDIAG:  cpu time   10.8474: real time   10.8401
  RMM-DIIS:  cpu time   29.7675: real time   30.4772
    ORTHCH:  cpu time    2.9975: real time    3.0020
       DOS:  cpu time    0.0040: real time    0.0038
    CHARGE:  cpu time    2.4166: real time    2.4351
    MIXING:  cpu time    0.0040: real time    0.0035
    --------------------------------------------
      LOOP:  cpu time   46.1060: real time   46.8519

 eigenvalue-minimisations  : 25796
 total energy-change (2. order) : 0.8569275E-02  (-0.6715247E-03)
 number of electron     371.0000008 magnetization 
 augmentation part      112.0509489 magnetization 

 Broyden mixing:
  rms(total) = 0.55144E-01    rms(broyden)= 0.55140E-01
  rms(prec ) = 0.62884E-01
  weight for this iteration     100.00

 eigenvalues of (default mixing * dielectric matrix)
  average eigenvalue GAMMA=   0.7890
  2.2930  2.2930  1.2229  0.7775  0.7775  0.5635  0.1214  0.2983  0.2983  0.3151
  0.2706  0.2372

 Free energy of the ion-electron system (eV)
  ---------------------------------------------------
  alpha Z        PSCENC =       958.22283780
  Ewald energy   TEWEN  =     91969.07086208
  -Hartree energ DENC   =   -120111.59046909
  -exchange      EXHF   =         0.00000000
  -V(xc)+E(xc)   XCENC  =       144.00893220
  PAW double counting   =     32427.53441945   -31508.87424364
  entropy T*S    EENTRO =        -2.09030499
  eigenvalues    EBANDS =      -694.45437184
  atomic energy  EATOM  =     26579.72061084
  Solvation  Ediel_sol  =         0.00000000
  ---------------------------------------------------
  free energy    TOTEN  =      -238.45172719 eV

[...]
    165       0.8527      1.99610
    166       0.8921      1.99422
    167       0.9499      1.98972
    168       0.9591      1.98874
    169       0.9949      1.98393
    170       1.0565      1.97045
    171       1.1021      1.95374
    172       1.1629      1.91671
    173       1.1951      1.88683
    174       1.2055      1.87522
    175       1.2372      1.83247
    176       1.2602      1.79376
    177       1.2761      1.76245
    178       1.3438      1.58072
    179       1.3924      1.39725
    180       1.4010      1.36031
    181       1.4195      1.27741
    182       1.4221      1.26519
    183       1.4538      1.11306
    184       1.4728      1.01815
    185       1.4843      0.96070
    186       1.6090      0.41997
    187       1.6526      0.29323
    188       1.6783      0.23463
    189       1.7038      0.18667
    190       1.7215      0.15877
    191       1.7317      0.14455
    192       1.7484      0.12368
    193       1.7767      0.09465
    194       1.8020      0.07431
    195       1.8163      0.06468
    196       2.3568      0.00030
    197       2.4181      0.00016
    198       2.7591      0.00001
    199       2.9368      0.00000
    200       2.9432      0.00000
    201       2.9761      0.00000
    202       3.1100      0.00000
    203       3.2608      0.00000
    204       3.3841      0.00000
    205       3.4904      0.00000
    206       3.7143      0.00000
    207       3.7730      0.00000
    208       3.8309      0.00000
    209       4.0329      0.00000
    210       4.2347      0.00000
    211       4.3080      0.00000
    212       4.3691      0.00000
    213       4.3961      0.00000
    214       4.5498      0.00000
    215       4.6218      0.00000
    216       4.7395      0.00000
    217       4.9257      0.00000
    218       5.1296      0.00000
    219       5.2096      0.00000
    220       5.3019      0.00000
    221       5.9029      0.00000
    222       6.0774      0.00000
    223       6.1150      0.00000
    224       6.2434      0.00000
    225       6.8195      0.00000


--------------------------------------------------------------------------------------------------------


 soft charge-density along one line, spin component           1
         0         1         2         3         4         5         6         7         8         9
 total charge-density along one line
 
 pseudopotential strength for first ion, spin component:           1
 -6.018   0.000   0.000  -0.012   0.000  -6.134   0.000   0.000
  0.000  -5.915  -0.001   0.000  -0.011   0.000  -6.034  -0.001
  0.000  -0.001  -5.911   0.001  -0.001   0.000  -0.001  -6.030
 -0.012   0.000   0.001  -5.915  -0.000  -0.012   0.000   0.001
  0.000  -0.011  -0.001  -0.000  -6.018   0.000  -0.011  -0.001
 -6.134   0.000   0.000  -0.012   0.000  -6.234   0.000   0.000
  0.000  -6.034  -0.001   0.000  -0.011   0.000  -6.136  -0.001
  0.000  -0.001  -6.030   0.001  -0.001   0.000  -0.001  -6.133
 -0.012   0.000   0.001  -6.034  -0.000  -0.011   0.000   0.001
  0.000  -0.011  -0.001  -0.000  -6.134   0.000  -0.010  -0.001
 -0.000   0.000  -0.032  -0.000  -0.000  -0.000   0.000  -0.031
 -0.000   0.001  -0.047  -0.000  -0.000  -0.000   0.001  -0.046
  0.000  -0.004   0.000   0.000   0.001   0.000  -0.004   0.000
  0.000  -0.001  -0.008   0.000  -0.000   0.000  -0.000  -0.008
  0.000   0.000  -0.000  -0.004   0.000   0.000   0.000  -0.000
  0.000  -0.003   0.000   0.000   0.001   0.000  -0.002   0.000
  0.000  -0.001  -0.009   0.000  -0.000   0.000  -0.001  -0.008
  0.000   0.000  -0.000  -0.003   0.000   0.000   0.000  -0.000
 total augmentation occupancy for first ion, spin component:           1
  3.157  -0.001   0.018  -0.212   0.007  -2.026   0.001  -0.011   0.038  -0.004   0.003  -0.000  -0.002  -0.001  -0.047   0.000
 -0.001   3.907  -0.034   0.014  -0.212   0.001  -2.089   0.023  -0.008   0.044  -0.008   0.001  -0.257   0.006  -0.001   0.012
  0.018  -0.034   4.137   0.029  -0.020  -0.012   0.023  -2.550  -0.019   0.014   0.757  -0.118   0.006  -0.308  -0.006   0.000
 -0.212   0.014   0.029   3.874  -0.009   0.044  -0.008  -0.019  -2.068   0.006   0.005  -0.000  -0.001  -0.005  -0.253  -0.000
  0.007  -0.212  -0.020  -0.009   3.164  -0.004   0.036   0.013   0.005  -2.030  -0.001  -0.001  -0.051   0.002  -0.002   0.004
 -2.026   0.001  -0.012   0.044  -0.004   2.537  -0.001   0.008   0.081   0.002  -0.002  -0.000   0.001   0.001   0.048   0.000
  0.001  -2.089   0.023  -0.008   0.036  -0.001   2.101  -0.016   0.005   0.082   0.006   0.000   0.245  -0.003   0.000  -0.016
 -0.011   0.023  -2.550  -0.019   0.013   0.008  -0.016   2.725   0.013  -0.009  -0.658   0.084  -0.004   0.365   0.004   0.000
  0.038  -0.008  -0.019  -2.068   0.005   0.081   0.005   0.013   2.087  -0.004  -0.004  -0.000   0.001   0.003   0.244   0.000
 -0.004   0.044   0.014   0.006  -2.030   0.002   0.082  -0.009  -0.004   2.540   0.001   0.000   0.050  -0.001   0.001  -0.003
  0.003  -0.008   0.757   0.005  -0.001  -0.002   0.006  -0.658  -0.004   0.001   2.236  -0.445   0.002   0.186  -0.001  -0.000
 -0.000   0.001  -0.118  -0.000  -0.001  -0.000   0.000   0.084  -0.000   0.000  -0.445   0.110   0.000  -0.065  -0.000   0.000
 -0.002  -0.257   0.006  -0.001  -0.051   0.001   0.245  -0.004   0.001   0.050   0.002   0.000   0.260  -0.001   0.001  -0.014
 -0.001   0.006  -0.308  -0.005   0.002   0.001  -0.003   0.365   0.003  -0.001   0.186  -0.065  -0.001   0.147   0.001   0.000
 -0.047  -0.001  -0.006  -0.253  -0.002   0.048   0.000   0.004   0.244   0.001  -0.001  -0.000   0.001   0.001   0.259  -0.000
  0.000   0.012   0.000  -0.000   0.004   0.000  -0.016   0.000   0.000  -0.003  -0.000   0.000  -0.014   0.000  -0.000   0.001
 -0.000  -0.001   0.003   0.001   0.000   0.000   0.000  -0.019  -0.000  -0.000  -0.018   0.005   0.000  -0.009  -0.000   0.000
  0.003  -0.000   0.000   0.012   0.000  -0.003   0.000  -0.000  -0.017   0.000   0.000  -0.000  -0.000  -0.000  -0.014   0.000


------------------------ aborting loop because EDIFF is reached ----------------------------------------


    CHARGE:  cpu time    2.2677: real time    2.2658
    FORLOC:  cpu time    0.0170: real time    0.0172
    FORNL :  cpu time   11.2803: real time   11.3051
    STRESS:  cpu time   34.0058: real time   34.0919
    FORCOR:  cpu time    0.0730: real time    0.0715
    FORHAR:  cpu time    0.0300: real time    0.0299
    MIXING:  cpu time    0.0090: real time    0.0092
    OFIELD:  cpu time    0.0000: real time    0.0000

  FORCE on cell =-STRESS in cart. coord.  units (eV):
  Direction    XX          YY          ZZ          XY          YZ          ZX
  --------------------------------------------------------------------------------------
  Alpha Z   958.22284   958.22284   958.22284
  Ewald  111793.21160111724.76506************    43.81619    19.98255    20.79598
  Hartree118321.60789118279.70066************    31.00512    10.03153    13.89415
  E(xc)   -1630.78381 -1630.84267 -1640.25205    -0.01703     0.04204     0.01516
  Local  ************************241163.36993   -78.29446   -28.67319   -35.28349
  n-local   143.29722   143.31913   133.40549    -0.90307     0.55039    -0.25312
  augment  1880.94697  1880.47393  1925.61603     1.47083    -0.63693     0.24588
  Kinetic  5341.95318  5339.80539  5466.87672     3.79085    -0.96180     0.54765
  Fock        0.00000     0.00000     0.00000     0.00000     0.00000     0.00000
  -------------------------------------------------------------------------------------
  Total     -35.28361   -36.60462    -0.33734     0.86842     0.33459    -0.03778
  in kB     -42.07138   -43.64652    -0.40224     1.03549     0.39896    -0.04505
  external pressure =      -28.71 kB  Pullay stress =        0.00 kB


 VOLUME and BASIS-vectors are now :
 -----------------------------------------------------------------------------
  energy-cutoff  :      400.00
  volume of cell :     1343.68
      direct lattice vectors                 reciprocal lattice vectors
     8.421641764  0.000000000  0.000000000     0.118741693 -0.068555548  0.000000000
     4.210820882  7.293355709  0.000000000     0.000000000  0.137111097  0.000000000
     0.000000000  0.000000000 21.876241706     0.000000000  0.000000000  0.045711691

  length of vectors
     8.421641764  8.421641764 21.876241706     0.137111097  0.137111097  0.045711691


 FORCES acting on ions
    electron-ion (+dipol)            ewald-force                    non-local-force                 convergence-correction
 -----------------------------------------------------------------------------------------------
   0.255E+00 0.125E+00 0.233E+04   -.324E+00 -.383E-01 -.233E+04   0.497E-01 -.480E-01 -.116E+01   0.656E-04 -.145E-04 0.225E-04
   -.977E-01 -.750E-01 0.233E+04   0.172E+00 0.125E+00 -.233E+04   -.475E-01 -.322E-01 -.109E+01   -.117E-04 -.714E-04 0.665E-04
   -.147E+00 0.373E-04 0.233E+04   0.150E+00 -.705E-02 -.233E+04   -.478E-02 0.149E-01 -.121E+01   -.543E-04 -.115E-03 0.528E-04
   -.690E-01 -.101E+00 0.233E+04   0.634E-01 0.952E-01 -.233E+04   0.503E-02 -.631E-02 -.125E+01   -.151E-04 -.424E-05 0.445E-04
   -.623E-01 -.988E-01 0.233E+04   0.489E-01 0.122E+00 -.233E+04   0.156E-01 -.196E-01 -.121E+01   -.714E-04 -.256E-04 0.354E-04
   0.126E+00 0.105E+00 0.233E+04   -.113E+00 -.867E-01 -.233E+04   -.769E-02 -.845E-02 -.122E+01   0.867E-04 0.459E-04 -.199E-04
   -.571E-01 -.196E-01 0.233E+04   0.816E-01 0.461E-01 -.233E+04   -.134E-01 -.141E-01 -.128E+01   -.689E-04 0.287E-04 0.757E-04
   0.250E+00 0.168E+00 0.233E+04   -.216E+00 -.254E+00 -.233E+04   -.120E-01 0.579E-01 -.116E+01   0.764E-04 0.101E-03 0.152E-04
   -.153E+00 0.224E-01 0.233E+04   0.135E+00 -.803E-02 -.233E+04   0.117E-02 -.718E-05 -.125E+01   -.801E-05 0.556E-04 0.555E-04
   0.478E+00 -.324E+01 0.834E+03   -.485E+00 0.312E+01 -.833E+03   0.226E-01 0.994E-01 -.328E+00   0.996E-04 0.593E-07 0.855E-03
   -.647E+00 -.293E+00 0.833E+03   0.557E+00 0.259E+00 -.833E+03   0.449E-01 -.603E-02 -.270E+00   -.739E-04 -.113E-03 0.945E-03
   0.189E+00 0.137E+01 0.832E+03   -.117E+00 -.142E+01 -.832E+03   -.584E-01 -.120E-02 -.225E+00   -.255E-04 -.943E-04 0.894E-03
   -.131E+01 -.723E+00 0.833E+03   0.136E+01 0.727E+00 -.833E+03   -.167E-01 -.308E-01 -.359E+00   -.771E-04 0.215E-04 0.942E-03
   0.117E+01 -.656E-01 0.832E+03   -.119E+01 0.170E+00 -.832E+03   -.316E-02 -.953E-01 -.230E+00   -.342E-04 0.295E-04 0.905E-03
   0.190E+00 0.477E+00 0.835E+03   -.234E+00 -.488E+00 -.834E+03   0.106E-01 -.294E-01 -.351E+00   0.111E-03 0.104E-03 0.839E-03
   0.492E+01 0.293E+01 0.831E+03   -.478E+01 -.284E+01 -.831E+03   -.163E+00 -.121E+00 -.309E+00   -.557E-04 -.174E-05 0.890E-03
   -.277E+01 0.225E+01 0.834E+03   0.265E+01 -.217E+01 -.834E+03   0.131E+00 -.773E-01 -.349E+00   0.111E-03 0.815E-04 0.836E-03
   -.172E+01 -.374E+00 0.833E+03   0.173E+01 0.447E+00 -.833E+03   0.219E-02 -.557E-01 -.361E+00   -.549E-04 -.274E-04 0.911E-03
   -.459E+01 0.294E+01 -.679E+03   0.414E+01 -.267E+01 0.679E+03   0.452E+00 -.270E+00 0.592E-01   0.450E-04 -.390E-04 0.594E-03
   0.157E+01 -.129E+01 -.682E+03   -.135E+01 0.148E+01 0.681E+03   -.212E+00 -.192E+00 0.327E+00   0.576E-04 -.105E-04 0.574E-03
   0.930E+00 0.260E+00 -.680E+03   -.811E+00 -.205E+00 0.679E+03   -.114E+00 -.559E-01 0.920E+00   -.105E-03 -.757E-04 0.655E-03
   -.294E+01 -.161E+01 -.676E+03   0.295E+01 0.162E+01 0.676E+03   -.454E-02 -.971E-02 0.511E+00   0.859E-04 0.683E-04 0.524E-03
   0.338E+01 -.405E+01 -.688E+03   -.341E+01 0.355E+01 0.688E+03   0.321E-01 0.495E+00 0.722E-02   -.856E-04 -.772E-05 0.629E-03
   0.191E+00 -.533E+01 -.678E+03   -.185E+00 0.481E+01 0.678E+03   -.106E-01 0.520E+00 0.685E-01   0.385E-06 0.714E-04 0.584E-03
   -.173E+01 0.520E+01 -.689E+03   0.130E+01 -.499E+01 0.689E+03   0.440E+00 -.216E+00 0.418E-02   -.660E-04 -.655E-04 0.585E-03
   0.203E+01 0.925E+00 -.654E+03   -.206E+01 -.942E+00 0.653E+03   0.329E-01 0.193E-01 0.861E+00   0.358E-04 0.136E-04 0.599E-03
   -.386E+00 0.198E+01 -.681E+03   0.666E+00 -.189E+01 0.681E+03   -.277E+00 -.898E-01 0.330E+00   0.314E-04 0.432E-04 0.520E-03
   -.284E+02 0.257E+02 -.218E+04   0.287E+02 -.260E+02 0.217E+04   -.259E+00 0.287E+00 0.114E+01   -.375E-04 -.515E-04 -.562E-04
   0.291E+02 0.170E+02 -.217E+04   -.298E+02 -.174E+02 0.217E+04   0.732E+00 0.461E+00 0.136E+01   0.537E-04 0.478E-04 -.828E-04
   -.173E+02 0.132E+03 -.212E+04   0.168E+02 -.132E+03 0.212E+04   0.530E+00 -.793E+00 -.287E+01   -.211E-04 0.307E-04 -.102E-03
   -.118E+02 -.767E+01 -.220E+04   0.118E+02 0.762E+01 0.219E+04   -.691E-01 0.512E-01 0.102E+01   0.927E-04 0.142E-04 -.601E-04
   0.105E+03 -.810E+02 -.212E+04   -.105E+03 0.801E+02 0.212E+04   -.397E+00 0.907E+00 -.289E+01   -.103E-05 -.208E-04 -.935E-04
   -.818E+02 -.473E+02 -.208E+04   0.823E+02 0.476E+02 0.208E+04   -.494E+00 -.276E+00 -.366E+01   -.778E-04 -.448E-04 -.586E-04
   0.474E+01 0.147E+01 -.220E+04   -.469E+01 -.149E+01 0.220E+04   -.443E-01 0.204E-01 0.108E+01   0.213E-04 -.701E-05 -.754E-04
   0.762E+01 -.380E+02 -.217E+04   -.772E+01 0.383E+02 0.217E+04   0.104E+00 -.330E+00 0.114E+01   -.790E-04 -.167E-04 -.509E-04
   -.123E+02 -.739E+01 -.219E+04   0.124E+02 0.742E+01 0.219E+04   -.323E-01 -.290E-01 0.101E+01   0.578E-04 0.551E-04 -.685E-04
   0.653E+02 0.378E+02 -.105E+04   -.662E+02 -.383E+02 0.106E+04   0.883E+00 0.495E+00 -.255E+01   -.112E-04 0.313E-05 -.154E-03
   -.595E+02 -.346E+02 -.105E+04   0.603E+02 0.351E+02 0.105E+04   -.825E+00 -.483E+00 -.277E+01   -.244E-04 -.117E-04 -.131E-03
   0.383E+02 0.228E+02 -.279E+03   -.418E+02 -.249E+02 0.283E+03   0.353E+01 0.212E+01 -.381E+01   0.185E-05 0.243E-05 -.335E-04
   0.270E+01 -.503E+02 -.267E+03   -.352E+01 0.551E+02 0.269E+03   0.810E+00 -.486E+01 -.260E+01   -.326E-05 -.196E-05 -.264E-04
   -.420E+02 0.271E+02 -.267E+03   0.458E+02 -.302E+02 0.269E+03   -.379E+01 0.310E+01 -.268E+01   -.287E-05 -.125E-05 -.260E-04
 -----------------------------------------------------------------------------------------------
   -.919E+00 -.594E+00 0.275E+02   0.426E-13 0.181E-12 -.472E-11   0.980E+00 0.497E+00 -.276E+02   -.313E-04 -.388E-05 0.126E-01
 
 
 POSITION                                       TOTAL-FORCE (eV/Angst)
 -----------------------------------------------------------------------------------
      0.00000      0.00000      7.50000        -0.020520      0.041261     -0.070590
      2.80721      0.00000      7.50000         0.025381      0.019907     -0.100039
      5.61443      0.00000      7.50000        -0.003054      0.010111     -0.058941
      1.40361      2.43112      7.50000        -0.002028     -0.009301     -0.057770
      4.21082      2.43112      7.50000         0.000684      0.005423     -0.057452
      7.01803      2.43112      7.50000         0.004327      0.012727     -0.079152
      2.80721      4.86224      7.50000         0.009526      0.014875     -0.040382
      5.61443      4.86224      7.50000         0.021018     -0.025092     -0.071827
      8.42164      4.86224      7.50000        -0.018415      0.016767     -0.059309
      1.40361      0.81037      9.79208         0.014476     -0.019857     -0.112857
      4.21082      0.81037      9.79208        -0.047237     -0.038190      0.103923
      7.01803      0.81037      9.79208         0.012419     -0.047314      0.170166
      2.80721      3.24149      9.79208         0.036195     -0.024745      0.164887
      5.61443      3.24149      9.79208        -0.026284      0.011801      0.168352
      8.42164      3.24149      9.79208        -0.034586     -0.037882      0.159372
      4.21082      5.67261      9.79208        -0.024966     -0.027826     -0.110932
      7.01803      5.67261      9.79208         0.003500      0.000114     -0.113223
      9.82525      5.67261      9.79208         0.016441      0.020448      0.164270
      8.40910      1.61342     12.07858         0.002082     -0.001364      0.005965
      2.81276      1.61045     12.07516         0.003455      0.002431      0.000880
      5.61175      1.60370     12.08082         0.003669      0.001796     -0.001165
      9.82426      4.03535     12.06095         0.005627     -0.000898      0.006014
      4.20407      4.01488     12.08769         0.003862      0.003751      0.001611
      7.01848      4.02148     12.07714        -0.006307     -0.001328      0.004503
     11.20881      6.47274     12.08844         0.006394      0.002419      0.006361
      5.60587      6.46166     12.02617        -0.000555      0.004323      0.018496
      8.43068      6.46933     12.07346         0.000762      0.002240      0.003970
      4.21936      7.25114     14.34488         0.009577      0.001144     -0.007240
      6.97653      7.23467     14.32829        -0.002023      0.001482      0.000593
      9.81811      7.27901     14.49811        -0.001330     -0.003520     -0.003766
      1.41826      2.40043     14.36632        -0.000126      0.006149     -0.002113
      4.21658      2.38177     14.50090         0.006213      0.004319     -0.002174
      7.07747      2.43477     14.47564         0.011503      0.007999     -0.008018
      2.80877      4.82935     14.36935         0.001905      0.005208     -0.000815
      5.60768      4.84107     14.34386         0.002146      0.012394     -0.001559
      8.43298      4.84146     14.36300        -0.001380      0.005428     -0.003061
      5.15271      1.32218     16.00361        -0.008581     -0.000459      0.000006
      6.37859      2.03561     16.40760        -0.005237      0.015622     -0.003431
      4.46484      0.91087     16.75913        -0.004595      0.017682     -0.005688
      6.20900      2.99165     16.92658        -0.004979     -0.007634     -0.002431
      7.11751      1.41773     16.93976         0.011043     -0.002412     -0.005435
 -----------------------------------------------------------------------------------
    total drift:                                0.060382     -0.097201     -0.056755


--------------------------------------------------------------------------------------------------------



  FREE ENERGIE OF THE ION-ELECTRON SYSTEM (eV)
  ---------------------------------------------------
  free  energy   TOTEN  =      -238.45075522 eV

  energy  without entropy=     -236.36034731  energy(sigma->0) =     -237.40555127
 


--------------------------------------------------------------------------------------------------------


    POTLOK:  cpu time    0.0870: real time    0.0873


--------------------------------------------------------------------------------------------------------


 stress matrix after NEB project (eV)
    -35.28361      0.86842     -0.03778
      0.86842    -36.60462      0.33459
     -0.03778      0.33459     -0.33734
  FORCES: max atom, RMS     0.019134    0.007742
  FORCE total and by dimension    0.049575    0.018496
  Stress total and by dimension   50.859416   36.604617
     LOOP+:  cpu time 1896.3327: real time 1912.5084
    4ORBIT:  cpu time    0.0000: real time    0.0000

 total amount of memory used by VASP on root node   292236. kBytes
========================================================================

   base      :      30000. kBytes
   nonlr-proj:       4775. kBytes
   fftplans  :       4497. kBytes
   grid      :       7849. kBytes
   one-center:        171. kBytes
   wavefun   :     244944. kBytes
 
  
  
 General timing and accounting informations for this job:
 ========================================================
  
                  Total CPU time used (sec):     1931.472
                            User time (sec):     1875.997
                          System time (sec):       55.476
                         Elapsed time (sec):     1949.033
  
                   Maximum memory used (kb):      333808.
                   Average memory used (kb):           0.
  
                          Minor page faults:     25664057
                          Major page faults:            5
                 Voluntary context switches:         3404
