 running on   20 total cores
 distrk:  each k-point on   20 cores,    1 groups
 distr:  one band on    4 cores,    5 groups
 using from now: INCAR     
 vasp.5.4.1 24Jun15 (build Oct 10 2016 12:42:00) complex                        
  
 POSCAR found :  3 types and      41 ions
 scaLAPACK will be used
 LDA part: xc-table for Pade appr. of Perdew
 POSCAR found :  3 types and      41 ions
 POSCAR, INCAR and KPOINTS ok, starting setup
 WARNING: small aliasing (wrap around) errors must be expected
 FFT: planning ...
 WAVECAR not read
 entering main loop
       N       E                     dE             d eps       ncg     rms          rms(c)
DAV:   1     0.219885823619E+04    0.21989E+04   -0.14682E+05 24370   0.117E+03
DAV:   2    -0.923966543809E+02   -0.22913E+04   -0.21218E+04 28450   0.269E+02
DAV:   3    -0.250457088433E+03   -0.15806E+03   -0.14345E+03 29070   0.641E+01
DAV:   4    -0.257222534668E+03   -0.67654E+01   -0.65614E+01 30960   0.129E+01    0.635E+01
RMM:   5    -0.244669252475E+03    0.12553E+02   -0.57706E+01 25904   0.149E+01    0.436E+01
RMM:   6    -0.283216920329E+03   -0.38548E+02   -0.70995E+01 25671   0.129E+01    0.553E+01
RMM:   7    -0.243089835359E+03    0.40127E+02   -0.28568E+01 25135   0.897E+00    0.202E+01
RMM:   8    -0.257425622118E+03   -0.14336E+02   -0.17504E+01 25888   0.642E+00    0.372E+01
RMM:   9    -0.245686380440E+03    0.11739E+02   -0.85099E+00 25947   0.447E+00    0.254E+01
RMM:  10    -0.239216001143E+03    0.64704E+01   -0.38277E+00 25055   0.328E+00    0.946E+00
RMM:  11    -0.238683219291E+03    0.53278E+00   -0.94493E-01 25695   0.157E+00    0.546E+00
RMM:  12    -0.238549109959E+03    0.13411E+00   -0.25506E-01 26391   0.796E-01    0.367E+00
RMM:  13    -0.238492642849E+03    0.56467E-01   -0.13594E-01 25622   0.598E-01    0.218E+00
RMM:  14    -0.238482374445E+03    0.10268E-01   -0.72591E-02 25942   0.433E-01    0.171E+00
RMM:  15    -0.238460296460E+03    0.22078E-01   -0.12637E-02 25925   0.189E-01    0.103E+00
RMM:  16    -0.238451727185E+03    0.85693E-02   -0.67152E-03 25796   0.128E-01    0.551E-01
RMM:  17    -0.238450738880E+03    0.98830E-03   -0.55143E-03 25921   0.112E-01    0.453E-01
RMM:  18    -0.238449047945E+03    0.16909E-02   -0.21208E-03 25739   0.769E-02    0.199E-01
RMM:  19    -0.238448596285E+03    0.45166E-03   -0.66632E-04 26015   0.414E-02    0.114E-01
RMM:  20    -0.238448506404E+03    0.89881E-04   -0.34547E-04 25866   0.292E-02    0.823E-02
RMM:  21    -0.238448593976E+03   -0.87572E-04   -0.14315E-04 26069   0.181E-02    0.612E-02
RMM:  22    -0.238448809729E+03   -0.21575E-03   -0.18722E-04 25247   0.200E-02    0.565E-02
RMM:  23    -0.238448985364E+03   -0.17563E-03   -0.12555E-04 25478   0.167E-02    0.484E-02
RMM:  24    -0.238449225243E+03   -0.23988E-03   -0.10037E-04 25299   0.149E-02    0.418E-02
RMM:  25    -0.238449397338E+03   -0.17210E-03   -0.31517E-05 25966   0.822E-03    0.354E-02
RMM:  26    -0.238449853105E+03   -0.45577E-03   -0.36564E-05 25485   0.910E-03    0.231E-02
RMM:  27    -0.238450057827E+03   -0.20472E-03   -0.14365E-05 25114   0.509E-03    0.243E-02
RMM:  28    -0.238450239540E+03   -0.18171E-03   -0.89490E-06 20874   0.370E-03    0.137E-02
RMM:  29    -0.238450423916E+03   -0.18438E-03   -0.88361E-06 20025   0.344E-03    0.811E-03
RMM:  30    -0.238450515046E+03   -0.91130E-04   -0.34985E-06 18201   0.218E-03    0.758E-03
RMM:  31    -0.238450643063E+03   -0.12802E-03   -0.43298E-06 18112   0.238E-03    0.448E-03
RMM:  32    -0.238450687803E+03   -0.44741E-04   -0.15792E-06 16359   0.149E-03    0.213E-03
RMM:  33    -0.238450725250E+03   -0.37447E-04   -0.15110E-06 15481   0.133E-03    0.317E-03
RMM:  34    -0.238450737411E+03   -0.12161E-04   -0.57440E-07 12075   0.857E-04    0.269E-03
RMM:  35    -0.238450748908E+03   -0.11497E-04   -0.66006E-07 14111   0.930E-04    0.865E-04
RMM:  36    -0.238450750811E+03   -0.19034E-05   -0.18168E-07  8292   0.511E-04    0.399E-04
RMM:  37    -0.238450752381E+03   -0.15699E-05   -0.88903E-08  6683   0.465E-04    0.329E-04
RMM:  38    -0.238450753622E+03   -0.12410E-05   -0.67817E-08  6576   0.465E-04    0.349E-04
RMM:  39    -0.238450754896E+03   -0.12732E-05   -0.10650E-07  7949   0.511E-04    0.226E-04
RMM:  40    -0.238450755224E+03   -0.32827E-06   -0.30118E-08  4885   0.438E-04
   1 F= -.23845076E+03 E0= -.23740555E+03  d E =-.209041E+01
