<?xml version="1.0" encoding="ISO-8859-1"?>
<modeling>
 <generator>
  <i name="program" type="string">vasp </i>
  <i name="version" type="string">5.4.1  </i>
  <i name="subversion" type="string">24Jun15 (build Oct 10 2016 12:42:00) complex                          parallel </i>
  <i name="platform" type="string">IFC91_ompi </i>
  <i name="date" type="string">2018 06 30 </i>
  <i name="time" type="string">23:25:08 </i>
 </generator>
 <incar>
  <i type="string" name="PREC">normal</i>
  <i type="string" name="ALGO"> fast</i>
  <i type="int" name="ISPIN">     1</i>
  <i type="int" name="NELMDL">    -4</i>
  <i type="int" name="NELMIN">     4</i>
  <i name="EDIFF">      0.00000100</i>
  <i name="ENCUT">    400.00000000</i>
  <i type="string" name="LREAL"> auto</i>
  <i type="int" name="ISMEAR">    -1</i>
  <i name="SIGMA">      0.10000000</i>
  <i type="logical" name="LWAVE"> F  </i>
  <i type="logical" name="LCHARG"> F  </i>
  <v type="int" name="KPOINT_BSE">    -1     0     0     0</v>
  <i type="string" name="GGA"> PE</i>
 </incar>
 <kpoints>
  <generation param="Monkhorst-Pack">
   <v type="int" name="divisions">       6        6        1 </v>
   <v name="usershift">      0.00000000       0.00000000       0.00000000 </v>
   <v name="genvec1">      0.16666667      -0.00000000       0.00000000 </v>
   <v name="genvec2">      0.00000000       0.16666667       0.00000000 </v>
   <v name="genvec3">      0.00000000       0.00000000       1.00000000 </v>
   <v name="shift">      0.50000000       0.50000000       0.00000000 </v>
  </generation>
  <varray name="kpointlist" >
   <v>       0.08333333       0.08333333       0.00000000 </v>
   <v>       0.00000000       0.08333333       0.00000000 </v>
   <v>      -0.08333333       0.00000000       0.00000000 </v>
   <v>       0.25000000       0.08333333       0.00000000 </v>
   <v>       0.16666667       0.25000000       0.00000000 </v>
   <v>      -0.08333333       0.16666667       0.00000000 </v>
   <v>       0.16666667      -0.08333333       0.00000000 </v>
   <v>      -0.08333333      -0.25000000       0.00000000 </v>
   <v>      -0.25000000      -0.16666667       0.00000000 </v>
   <v>       0.41666667       0.08333333       0.00000000 </v>
   <v>       0.33333333       0.41666667       0.00000000 </v>
   <v>      -0.08333333       0.33333333       0.00000000 </v>
   <v>       0.33333333      -0.08333333       0.00000000 </v>
   <v>      -0.08333333      -0.41666667       0.00000000 </v>
   <v>      -0.41666667      -0.33333333       0.00000000 </v>
   <v>      -0.41666667       0.08333333       0.00000000 </v>
   <v>       0.50000000      -0.41666667       0.00000000 </v>
   <v>      -0.08333333       0.50000000       0.00000000 </v>
   <v>       0.50000000      -0.08333333       0.00000000 </v>
   <v>      -0.08333333       0.41666667       0.00000000 </v>
   <v>       0.41666667       0.50000000       0.00000000 </v>
   <v>      -0.25000000       0.08333333       0.00000000 </v>
   <v>      -0.33333333      -0.25000000       0.00000000 </v>
   <v>      -0.08333333      -0.33333333       0.00000000 </v>
   <v>      -0.33333333      -0.08333333       0.00000000 </v>
   <v>      -0.08333333       0.25000000       0.00000000 </v>
   <v>       0.25000000       0.33333333       0.00000000 </v>
   <v>      -0.08333333       0.08333333       0.00000000 </v>
   <v>      -0.16666667      -0.08333333       0.00000000 </v>
   <v>      -0.08333333      -0.16666667       0.00000000 </v>
   <v>       0.25000000       0.25000000       0.00000000 </v>
   <v>       0.00000000       0.25000000       0.00000000 </v>
   <v>      -0.25000000       0.00000000       0.00000000 </v>
   <v>       0.41666667       0.25000000       0.00000000 </v>
   <v>       0.16666667       0.41666667       0.00000000 </v>
   <v>      -0.25000000       0.16666667       0.00000000 </v>
   <v>       0.16666667      -0.25000000       0.00000000 </v>
   <v>      -0.25000000      -0.41666667       0.00000000 </v>
   <v>      -0.41666667      -0.16666667       0.00000000 </v>
   <v>      -0.41666667       0.25000000       0.00000000 </v>
   <v>       0.33333333      -0.41666667       0.00000000 </v>
   <v>      -0.25000000       0.33333333       0.00000000 </v>
   <v>       0.33333333      -0.25000000       0.00000000 </v>
   <v>      -0.25000000       0.41666667       0.00000000 </v>
   <v>       0.41666667      -0.33333333       0.00000000 </v>
   <v>      -0.25000000       0.25000000       0.00000000 </v>
   <v>       0.50000000      -0.25000000       0.00000000 </v>
   <v>      -0.25000000       0.50000000       0.00000000 </v>
   <v>       0.41666667       0.41666667       0.00000000 </v>
   <v>       0.00000000       0.41666667       0.00000000 </v>
   <v>      -0.41666667      -0.00000000       0.00000000 </v>
   <v>      -0.41666667       0.41666667       0.00000000 </v>
   <v>       0.16666667      -0.41666667       0.00000000 </v>
   <v>      -0.41666667       0.16666667       0.00000000 </v>
  </varray>
  <varray name="weights" >
   <v>       0.01851852 </v>
   <v>       0.01851852 </v>
   <v>       0.01851852 </v>
   <v>       0.01851852 </v>
   <v>       0.01851852 </v>
   <v>       0.01851852 </v>
   <v>       0.01851852 </v>
   <v>       0.01851852 </v>
   <v>       0.01851852 </v>
   <v>       0.01851852 </v>
   <v>       0.01851852 </v>
   <v>       0.01851852 </v>
   <v>       0.01851852 </v>
   <v>       0.01851852 </v>
   <v>       0.01851852 </v>
   <v>       0.01851852 </v>
   <v>       0.01851852 </v>
   <v>       0.01851852 </v>
   <v>       0.01851852 </v>
   <v>       0.01851852 </v>
   <v>       0.01851852 </v>
   <v>       0.01851852 </v>
   <v>       0.01851852 </v>
   <v>       0.01851852 </v>
   <v>       0.01851852 </v>
   <v>       0.01851852 </v>
   <v>       0.01851852 </v>
   <v>       0.01851852 </v>
   <v>       0.01851852 </v>
   <v>       0.01851852 </v>
   <v>       0.01851852 </v>
   <v>       0.01851852 </v>
   <v>       0.01851852 </v>
   <v>       0.01851852 </v>
   <v>       0.01851852 </v>
   <v>       0.01851852 </v>
   <v>       0.01851852 </v>
   <v>       0.01851852 </v>
   <v>       0.01851852 </v>
   <v>       0.01851852 </v>
   <v>       0.01851852 </v>
   <v>       0.01851852 </v>
   <v>       0.01851852 </v>
   <v>       0.01851852 </v>
   <v>       0.01851852 </v>
   <v>       0.01851852 </v>
   <v>       0.01851852 </v>
   <v>       0.01851852 </v>
   <v>       0.01851852 </v>
   <v>       0.01851852 </v>
   <v>       0.01851852 </v>
   <v>       0.01851852 </v>
   <v>       0.01851852 </v>
   <v>       0.01851852 </v>
  </varray>
 </kpoints>
 <parameters>
  <separator name="general" >
   <i type="string" name="SYSTEM">unknown system</i>
   <i type="logical" name="LCOMPAT"> F  </i>
  </separator>
  <separator name="electronic" >
   <i type="string" name="PREC">normal</i>
   <i name="ENMAX">    400.00000000</i>
   <i name="ENAUG">    644.87300000</i>
   <i name="EDIFF">      0.00000100</i>
   <i type="int" name="IALGO">    68</i>
   <i type="int" name="IWAVPR">    10</i>
   <i type="int" name="NBANDS">   225</i>
   <i name="NELECT">    371.00000000</i>
   <i type="int" name="TURBO">     0</i>
   <i type="int" name="IRESTART">     0</i>
   <i type="int" name="NREBOOT">     0</i>
   <i type="int" name="NMIN">     0</i>
   <i name="EREF">      0.00000000</i>
   <separator name="electronic smearing" >
    <i type="int" name="ISMEAR">    -1</i>
    <i name="SIGMA">      0.10000000</i>
    <i name="KSPACING">      0.50000000</i>
    <i type="logical" name="KGAMMA"> T  </i>
   </separator>
   <separator name="electronic projectors" >
    <i type="logical" name="LREAL"> T  </i>
    <v name="ROPT">     -0.00050000     -0.00050000     -0.00050000</v>
    <i type="int" name="LMAXPAW">  -100</i>
    <i type="int" name="LMAXMIX">     2</i>
    <i type="logical" name="NLSPLINE"> F  </i>
   </separator>
   <separator name="electronic startup" >
    <i type="int" name="ISTART">     0</i>
    <i type="int" name="ICHARG">     2</i>
    <i type="int" name="INIWAV">     1</i>
   </separator>
   <separator name="electronic spin" >
    <i type="int" name="ISPIN">     1</i>
    <i type="logical" name="LNONCOLLINEAR"> F  </i>
    <v name="MAGMOM">      1.00000000      1.00000000      1.00000000      1.00000000      1.00000000      1.00000000      1.00000000      1.00000000      1.00000000      1.00000000      1.00000000      1.00000000      1.00000000      1.00000000      1.00000000      1.00000000      1.00000000      1.00000000      1.00000000      1.00000000
      1.00000000      1.00000000      1.00000000      1.00000000      1.00000000      1.00000000      1.00000000      1.00000000      1.00000000      1.00000000      1.00000000      1.00000000      1.00000000      1.00000000      1.00000000      1.00000000      1.00000000      1.00000000      1.00000000      1.00000000
      1.00000000</v>
    <i name="NUPDOWN">     -1.00000000</i>
    <i type="logical" name="LSORBIT"> F  </i>
    <v name="SAXIS">      0.00000000      0.00000000      1.00000000</v>
    <i type="logical" name="LSPIRAL"> F  </i>
    <v name="QSPIRAL">      0.00000000      0.00000000      0.00000000</v>
    <i type="logical" name="LZEROZ"> F  </i>
   </separator>
   <separator name="electronic exchange-correlation" >
    <i type="logical" name="LASPH"> F  </i>
    <i type="logical" name="LMETAGGA"> F  </i>
   </separator>
   <separator name="electronic convergence" >
    <i type="int" name="NELM">    60</i>
    <i type="int" name="NELMDL">    -4</i>
    <i type="int" name="NELMIN">     4</i>
    <i name="ENINI">    400.00000000</i>
    <separator name="electronic convergence detail" >
     <i type="logical" name="LDIAG"> T  </i>
     <i type="logical" name="LSUBROT"> F  </i>
     <i name="WEIMIN">      0.00000000</i>
     <i name="EBREAK">      0.00000000</i>
     <i name="DEPER">      0.30000000</i>
     <i type="int" name="NRMM">     4</i>
     <i name="TIME">      0.40000000</i>
    </separator>
   </separator>
   <separator name="electronic mixer" >
    <i name="AMIX">      0.40000000</i>
    <i name="BMIX">      1.00000000</i>
    <i name="AMIN">      0.10000000</i>
    <i name="AMIX_MAG">      1.60000000</i>
    <i name="BMIX_MAG">      1.00000000</i>
    <separator name="electronic mixer details" >
     <i type="int" name="IMIX">     4</i>
     <i type="logical" name="MIXFIRST"> F  </i>
     <i type="int" name="MAXMIX">   -45</i>
     <i name="WC">    100.00000000</i>
     <i type="int" name="INIMIX">     1</i>
     <i type="int" name="MIXPRE">     1</i>
     <i type="int" name="MREMOVE">     5</i>
    </separator>
   </separator>
   <separator name="electronic dipolcorrection" >
    <i type="logical" name="LDIPOL"> F  </i>
    <i type="logical" name="LMONO"> F  </i>
    <i type="int" name="IDIPOL">     0</i>
    <i name="EPSILON">      1.00000000</i>
    <v name="DIPOL">   -100.00000000   -100.00000000   -100.00000000</v>
    <i name="EFIELD">      0.00000000</i>
   </separator>
  </separator>
  <separator name="grids" >
   <i type="int" name="NGX">    42</i>
   <i type="int" name="NGY">    42</i>
   <i type="int" name="NGZ">   108</i>
   <i type="int" name="NGXF">    84</i>
   <i type="int" name="NGYF">    84</i>
   <i type="int" name="NGZF">   216</i>
   <i type="logical" name="ADDGRID"> F  </i>
  </separator>
  <separator name="ionic" >
   <i type="int" name="NSW">     0</i>
   <i type="int" name="IBRION">    -1</i>
   <i type="int" name="ISIF">     2</i>
   <i name="PSTRESS">      0.00000000</i>
   <i name="EDIFFG">      0.00001000</i>
   <i type="int" name="NFREE">     0</i>
   <i name="POTIM">      0.50000000</i>
   <i name="SMASS">     -3.00000000</i>
   <i name="SCALEE">      1.00000000</i>
  </separator>
  <separator name="ionic md" >
   <i name="TEBEG">      0.00010000</i>
   <i name="TEEND">      0.00010000</i>
   <i type="int" name="NBLOCK">     1</i>
   <i type="int" name="KBLOCK">     1</i>
   <i type="int" name="NPACO">   256</i>
   <i name="APACO">     16.00000000</i>
  </separator>
  <separator name="symmetry" >
   <i type="int" name="ISYM">     2</i>
   <i name="SYMPREC">      0.00001000</i>
  </separator>
  <separator name="dos" >
   <i type="logical" name="LORBIT"> F  </i>
   <v name="RWIGS">     -1.00000000     -1.00000000     -1.00000000</v>
   <i type="int" name="NEDOS">   301</i>
   <i name="EMIN">     10.00000000</i>
   <i name="EMAX">    -10.00000000</i>
   <i name="EFERMI">      0.00000000</i>
  </separator>
  <separator name="writing" >
   <i type="int" name="NWRITE">     2</i>
   <i type="logical" name="LWAVE"> F  </i>
   <i type="logical" name="LCHARG"> F  </i>
   <i type="logical" name="LPARD"> F  </i>
   <i type="logical" name="LVTOT"> F  </i>
   <i type="logical" name="LVHAR"> F  </i>
   <i type="logical" name="LELF"> F  </i>
   <i type="logical" name="LOPTICS"> F  </i>
   <v name="STM">      0.00000000      0.00000000      0.00000000      0.00000000      0.00000000      0.00000000      0.00000000</v>
  </separator>
  <separator name="performance" >
   <i type="int" name="NPAR">     5</i>
   <i type="int" name="NSIM">     4</i>
   <i type="int" name="NBLK">    -1</i>
   <i type="logical" name="LPLANE"> T  </i>
   <i type="logical" name="LSCALAPACK"> T  </i>
   <i type="logical" name="LSCAAWARE"> F  </i>
   <i type="logical" name="LSCALU"> F  </i>
   <i type="logical" name="LASYNC"> F  </i>
   <i type="logical" name="LORBITALREAL"> F  </i>
  </separator>
  <separator name="miscellaneous" >
   <i type="int" name="IDIOT">     3</i>
   <i type="logical" name="LMUSIC"> F  </i>
   <v name="POMASS">    195.08000000     12.01100000      1.00000000</v>
   <v name="DARWINR">      0.00000000      0.00000000      0.00000000</v>
   <v name="DARWINV">      1.00000000      1.00000000      1.00000000</v>
   <i type="logical" name="LCORR"> T  </i>
  </separator>
  <i type="logical" name="GGA_COMPAT"> T  </i>
  <i type="logical" name="LBERRY"> F  </i>
  <i type="int" name="ICORELEVEL">     0</i>
  <i type="logical" name="LDAU"> F  </i>
  <i type="int" name="I_CONSTRAINED_M">     0</i>
  <separator name="electronic exchange-correlation" >
   <i type="string" name="GGA">PE</i>
   <i type="int" name="VOSKOWN">     0</i>
   <i type="logical" name="LHFCALC"> F  </i>
   <i type="string" name="PRECFOCK"></i>
   <i type="logical" name="LSYMGRAD"> F  </i>
   <i type="logical" name="LHFONE"> F  </i>
   <i type="logical" name="LRHFCALC"> F  </i>
   <i type="logical" name="LTHOMAS"> F  </i>
   <i type="logical" name="LMODELHF"> F  </i>
   <i name="ENCUT4O">     -1.00000000</i>
   <i type="int" name="EXXOEP">     0</i>
   <i type="int" name="FOURORBIT">     0</i>
   <i name="AEXX">      0.00000000</i>
   <i name="HFALPHA">      0.00000000</i>
   <i name="MCALPHA">      0.00000000</i>
   <i name="ALDAX">      1.00000000</i>
   <i name="AGGAX">      1.00000000</i>
   <i name="ALDAC">      1.00000000</i>
   <i name="AGGAC">      1.00000000</i>
   <i type="int" name="NKREDX">     1</i>
   <i type="int" name="NKREDY">     1</i>
   <i type="int" name="NKREDZ">     1</i>
   <i type="logical" name="SHIFTRED"> F  </i>
   <i type="logical" name="ODDONLY"> F  </i>
   <i type="logical" name="EVENONLY"> F  </i>
   <i type="int" name="LMAXFOCK">     0</i>
   <i type="int" name="NMAXFOCKAE">     0</i>
   <i type="logical" name="LFOCKAEDFT"> F  </i>
   <i name="HFSCREEN">      0.00000000</i>
   <i name="HFSCREENC">      0.00000000</i>
   <i type="int" name="NBANDSGWLOW">     0</i>
  </separator>
  <separator name="vdW DFT" >
   <i type="logical" name="LUSE_VDW"> F  </i>
   <i name="Zab_VDW">     -0.84910000</i>
   <i name="PARAM1">      0.12340000</i>
   <i name="PARAM2">      1.00000000</i>
   <i name="PARAM3">      0.00000000</i>
  </separator>
  <separator name="model GW" >
   <i type="int" name="MODEL_GW">     0</i>
   <i name="MODEL_EPS0">     19.66365590</i>
   <i name="MODEL_ALPHA">      1.00000000</i>
  </separator>
  <separator name="linear response parameters" >
   <i type="logical" name="LEPSILON"> F  </i>
   <i type="logical" name="LRPA"> F  </i>
   <i type="logical" name="LNABLA"> F  </i>
   <i type="logical" name="LVEL"> F  </i>
   <i type="int" name="KINTER">     0</i>
   <i name="CSHIFT">      0.10000000</i>
   <i name="OMEGAMAX">     -1.00000000</i>
   <i name="DEG_THRESHOLD">      0.00200000</i>
  </separator>
  <separator name="orbital magnetization" >
   <i type="logical" name="NUCIND"> F  </i>
   <v name="MAGPOS">      0.00000000      0.00000000      0.00000000</v>
   <i type="logical" name="LNICSALL"> T  </i>
   <i type="logical" name="ORBITALMAG"> F  </i>
   <i type="logical" name="LMAGBLOCH"> F  </i>
   <i type="logical" name="LCHIMAG"> F  </i>
   <i type="logical" name="LGAUGE"> T  </i>
   <i type="int" name="MAGATOM">     0</i>
   <v name="MAGDIPOL">      0.00000000      0.00000000      0.00000000</v>
   <v name="AVECCONST">      0.00000000      0.00000000      0.00000000</v>
  </separator>
  <separator name="response functions" >
   <i type="logical" name="LADDER"> F  </i>
   <i type="logical" name="LFXC"> F  </i>
   <i type="logical" name="LHARTREE"> T  </i>
   <i type="int" name="IBSE">     0</i>
   <v type="int" name="KPOINT">    -1     0     0     0</v>
   <i type="logical" name="LTCTE"> F  </i>
   <i type="logical" name="LTETE"> F  </i>
   <i type="logical" name="LTRIPLET"> F  </i>
   <i type="logical" name="LFXCEPS"> F  </i>
   <i type="logical" name="LFXHEG"> F  </i>
   <i type="int" name="NATURALO">     0</i>
   <i type="logical" name="L2ORDER"> F  </i>
   <i type="logical" name="LUSEW"> F  </i>
   <i name="ENCUTGW">     -2.00000000</i>
   <i name="ENCUTGWSOFT">     -2.00000000</i>
   <i name="ENCUTLF">     -1.00000000</i>
   <i type="int" name="LMAXMP2">    -1</i>
   <i name="SCISSOR">      0.00000000</i>
   <i type="int" name="NOMEGA">     0</i>
   <i type="int" name="NOMEGAR">     0</i>
   <i type="int" name="NBANDSGW">    -1</i>
   <i type="int" name="NBANDSO">    -1</i>
   <i type="int" name="NBANDSV">    -1</i>
   <i type="int" name="NELM">     1</i>
   <i type="int" name="NELMHF">     1</i>
   <i type="int" name="DIM">     3</i>
   <i type="int" name="ANTIRES">     0</i>
   <i name="OMEGAMAX">    -30.00000000</i>
   <i name="OMEGAMIN">    -30.00000000</i>
   <i name="OMEGATL">   -200.00000000</i>
   <i type="int" name="OMEGAGRID">     0</i>
   <i name="CSHIFT">     -0.10000000</i>
   <i type="logical" name="SELFENERGY"> F  </i>
   <i type="logical" name="LSPECTRAL"> F  </i>
   <i type="logical" name="LSPECTRALGW"> F  </i>
   <i type="logical" name="LSINGLES"> F  </i>
   <i type="logical" name="LFERMIGW"> F  </i>
   <i type="logical" name="ODDONLYGW"> F  </i>
   <i type="logical" name="EVENONLYGW"> F  </i>
   <i type="int" name="NKREDLFX">     1</i>
   <i type="int" name="NKREDLFY">     1</i>
   <i type="int" name="NKREDLFZ">     1</i>
   <i type="int" name="MAXMEM">  1800</i>
   <i type="int" name="TELESCOPE">     0</i>
   <i type="int" name="TAUPAR">     1</i>
   <i type="int" name="OMEGAPAR">    -1</i>
   <i name="LAMBDA">      1.00000000</i>
  </separator>
  <separator name="External order field" >
   <i name="OFIELD_KAPPA">      0.00000000</i>
   <v name="OFIELD_K">      0.00000000      0.00000000      0.00000000</v>
   <i name="OFIELD_Q6_NEAR">      0.00000000</i>
   <i name="OFIELD_Q6_FAR">      0.00000000</i>
   <i name="OFIELD_A">      0.00000000</i>
  </separator>
 </parameters>
 <atominfo>
  <atoms>      41 </atoms>
  <types>       3 </types>
  <array name="atoms" >
   <dimension dim="1">ion</dimension>
   <field type="string">element</field>
   <field type="int">atomtype</field>
   <set>
    <rc><c>Pt</c><c>   1</c></rc>
    <rc><c>Pt</c><c>   1</c></rc>
    <rc><c>Pt</c><c>   1</c></rc>
    <rc><c>Pt</c><c>   1</c></rc>
    <rc><c>Pt</c><c>   1</c></rc>
    <rc><c>Pt</c><c>   1</c></rc>
    <rc><c>Pt</c><c>   1</c></rc>
    <rc><c>Pt</c><c>   1</c></rc>
    <rc><c>Pt</c><c>   1</c></rc>
    <rc><c>Pt</c><c>   1</c></rc>
    <rc><c>Pt</c><c>   1</c></rc>
    <rc><c>Pt</c><c>   1</c></rc>
    <rc><c>Pt</c><c>   1</c></rc>
    <rc><c>Pt</c><c>   1</c></rc>
    <rc><c>Pt</c><c>   1</c></rc>
    <rc><c>Pt</c><c>   1</c></rc>
    <rc><c>Pt</c><c>   1</c></rc>
    <rc><c>Pt</c><c>   1</c></rc>
    <rc><c>Pt</c><c>   1</c></rc>
    <rc><c>Pt</c><c>   1</c></rc>
    <rc><c>Pt</c><c>   1</c></rc>
    <rc><c>Pt</c><c>   1</c></rc>
    <rc><c>Pt</c><c>   1</c></rc>
    <rc><c>Pt</c><c>   1</c></rc>
    <rc><c>Pt</c><c>   1</c></rc>
    <rc><c>Pt</c><c>   1</c></rc>
    <rc><c>Pt</c><c>   1</c></rc>
    <rc><c>Pt</c><c>   1</c></rc>
    <rc><c>Pt</c><c>   1</c></rc>
    <rc><c>Pt</c><c>   1</c></rc>
    <rc><c>Pt</c><c>   1</c></rc>
    <rc><c>Pt</c><c>   1</c></rc>
    <rc><c>Pt</c><c>   1</c></rc>
    <rc><c>Pt</c><c>   1</c></rc>
    <rc><c>Pt</c><c>   1</c></rc>
    <rc><c>Pt</c><c>   1</c></rc>
    <rc><c>C </c><c>   2</c></rc>
    <rc><c>C </c><c>   2</c></rc>
    <rc><c>H </c><c>   3</c></rc>
    <rc><c>H </c><c>   3</c></rc>
    <rc><c>H </c><c>   3</c></rc>
   </set>
  </array>
  <array name="atomtypes" >
   <dimension dim="1">type</dimension>
   <field type="int">atomspertype</field>
   <field type="string">element</field>
   <field>mass</field>
   <field>valence</field>
   <field type="string">pseudopotential</field>
   <set>
    <rc><c>  36</c><c>Pt</c><c>    195.08000000</c><c>     10.00000000</c><c>  PAW_PBE Pt 04Feb2005                  </c></rc>
    <rc><c>   2</c><c>C </c><c>     12.01100000</c><c>      4.00000000</c><c>  PAW_PBE C 08Apr2002                   </c></rc>
    <rc><c>   3</c><c>H </c><c>      1.00000000</c><c>      1.00000000</c><c>  PAW_PBE H 15Jun2001                   </c></rc>
   </set>
  </array>
 </atominfo>
 <structure name="initialpos" >
  <crystal>
   <varray name="basis" >
    <v>       8.42164176       0.00000000       0.00000000 </v>
    <v>       4.21082088       7.29335571       0.00000000 </v>
    <v>       0.00000000       0.00000000      21.87624171 </v>
   </varray>
   <i name="volume">   1343.68315334 </i>
   <varray name="rec_basis" >
    <v>       0.11874169      -0.06855555       0.00000000 </v>
    <v>       0.00000000       0.13711110       0.00000000 </v>
    <v>       0.00000000       0.00000000       0.04571169 </v>
   </varray>
  </crystal>
  <varray name="positions" >
   <v>       0.00000000       0.00000000       0.34283768 </v>
   <v>       0.33333333       0.00000000       0.34283768 </v>
   <v>       0.66666667       0.00000000       0.34283768 </v>
   <v>       0.00000000       0.33333333       0.34283768 </v>
   <v>       0.33333333       0.33333333       0.34283768 </v>
   <v>       0.66666667       0.33333333       0.34283768 </v>
   <v>       0.00000000       0.66666667       0.34283768 </v>
   <v>       0.33333333       0.66666667       0.34283768 </v>
   <v>       0.66666667       0.66666667       0.34283768 </v>
   <v>       0.11111111       0.11111111       0.44761256 </v>
   <v>       0.44444444       0.11111111       0.44761256 </v>
   <v>       0.77777778       0.11111111       0.44761256 </v>
   <v>       0.11111111       0.44444444       0.44761256 </v>
   <v>       0.44444444       0.44444444       0.44761256 </v>
   <v>       0.77777778       0.44444444       0.44761256 </v>
   <v>       0.11111111       0.77777778       0.44761256 </v>
   <v>       0.44444444       0.77777778       0.44761256 </v>
   <v>       0.77777778       0.77777778       0.44761256 </v>
   <v>       0.88790222       0.22121765       0.55213218 </v>
   <v>       0.22358615       0.22081049       0.55197618 </v>
   <v>       0.55640685       0.21988459       0.55223492 </v>
   <v>       0.88990368       0.55329080       0.55132647 </v>
   <v>       0.22395618       0.55048403       0.55254880 </v>
   <v>       0.55769119       0.55138906       0.55206664 </v>
   <v>       0.88721118       0.88748435       0.55258314 </v>
   <v>       0.22266797       0.88596527       0.54973665 </v>
   <v>       0.55756456       0.88701746       0.55189827 </v>
   <v>       0.00390818       0.99421236       0.65572891 </v>
   <v>       0.33242872       0.99195314       0.65497058 </v>
   <v>       0.66680215       0.99803322       0.66273322 </v>
   <v>       0.00384358       0.32912564       0.65670864 </v>
   <v>       0.33739996       0.32656769       0.66286060 </v>
   <v>       0.67347341       0.33383433       0.66170596 </v>
   <v>       0.00243905       0.66215710       0.65684742 </v>
   <v>       0.33398374       0.66376386       0.65568232 </v>
   <v>       0.66943695       0.66381797       0.65655716 </v>
   <v>       0.52119926       0.18128566       0.73155188 </v>
   <v>       0.61785212       0.27910450       0.75001914 </v>
   <v>       0.46771759       0.12489046       0.76608797 </v>
   <v>       0.53217288       0.41018857       0.77374261 </v>
   <v>       0.74795166       0.19438634       0.77434508 </v>
  </varray>
  <varray name="selective"  type="logical" >
   <v type="logical" >  F  F  F </v>
   <v type="logical" >  F  F  F </v>
   <v type="logical" >  F  F  F </v>
   <v type="logical" >  F  F  F </v>
   <v type="logical" >  F  F  F </v>
   <v type="logical" >  F  F  F </v>
   <v type="logical" >  F  F  F </v>
   <v type="logical" >  F  F  F </v>
   <v type="logical" >  F  F  F </v>
   <v type="logical" >  F  F  F </v>
   <v type="logical" >  F  F  F </v>
   <v type="logical" >  F  F  F </v>
   <v type="logical" >  F  F  F </v>
   <v type="logical" >  F  F  F </v>
   <v type="logical" >  F  F  F </v>
   <v type="logical" >  F  F  F </v>
   <v type="logical" >  F  F  F </v>
   <v type="logical" >  F  F  F </v>
   <v type="logical" >  T  T  T </v>
   <v type="logical" >  T  T  T </v>
   <v type="logical" >  T  T  T </v>
   <v type="logical" >  T  T  T </v>
   <v type="logical" >  T  T  T </v>
   <v type="logical" >  T  T  T </v>
   <v type="logical" >  T  T  T </v>
   <v type="logical" >  T  T  T </v>
   <v type="logical" >  T  T  T </v>
   <v type="logical" >  T  T  T </v>
   <v type="logical" >  T  T  T </v>
   <v type="logical" >  T  T  T </v>
   <v type="logical" >  T  T  T </v>
   <v type="logical" >  T  T  T </v>
   <v type="logical" >  T  T  T </v>
   <v type="logical" >  T  T  T </v>
   <v type="logical" >  T  T  T </v>
   <v type="logical" >  T  T  T </v>
   <v type="logical" >  T  T  T </v>
   <v type="logical" >  T  T  T </v>
   <v type="logical" >  T  T  T </v>
   <v type="logical" >  T  T  T </v>
   <v type="logical" >  T  T  T </v>
  </varray>
  <nose>
   <v>      -3.00000000       0.00000000       0.00010000       0.00010000 </v>
  </nose>
 </structure>
 <calculation>
  <scstep>
   <time name="dav">   71.69   72.33</time>
   <time name="total">   71.94   72.61</time>
   <energy>
    <i name="alphaZ">    958.22283780 </i>
    <i name="ewald">  91969.07086208 </i>
    <i name="hartreedc">-120411.72989183 </i>
    <i name="XCdc">    154.70503611 </i>
    <i name="pawpsdc">  25283.89345048 </i>
    <i name="pawaedc"> -24266.86223937 </i>
    <i name="eentropy">     -0.56814079 </i>
    <i name="bandstr">   1932.40571088 </i>
    <i name="atom">  26579.72061084 </i>
    <i name="e_fr_energy">   2198.85823619 </i>
    <i name="e_wo_entrp">   2199.42637698 </i>
    <i name="e_0_energy">   2199.14230659 </i>
   </energy>
  </scstep>
  <scstep>
   <time name="dav">   90.47   91.28</time>
   <time name="total">   90.48   91.35</time>
   <energy>
    <i name="e_fr_energy">    -92.39665438 </i>
    <i name="e_wo_entrp">    -91.29160567 </i>
    <i name="e_0_energy">    -91.84413002 </i>
   </energy>
  </scstep>
  <scstep>
   <time name="dav">   85.91   86.10</time>
   <time name="total">   85.92   86.22</time>
   <energy>
    <i name="e_fr_energy">   -250.45708843 </i>
    <i name="e_wo_entrp">   -248.56554278 </i>
    <i name="e_0_energy">   -249.51131561 </i>
   </energy>
  </scstep>
  <scstep>
   <time name="dav">   90.57   90.66</time>
   <time name="total">   92.86   93.09</time>
   <energy>
    <i name="e_fr_energy">   -257.22253467 </i>
    <i name="e_wo_entrp">   -255.27717497 </i>
    <i name="e_0_energy">   -256.24985482 </i>
   </energy>
  </scstep>
  <scstep>
   <time name="diag">   10.82   10.88</time>
   <time name="diis">   30.10   30.24</time>
   <time name="orth">    3.02    3.03</time>
   <time name="total">   46.32   46.59</time>
   <energy>
    <i name="e_fr_energy">   -244.66925247 </i>
    <i name="e_wo_entrp">   -242.66938669 </i>
    <i name="e_0_energy">   -243.66931958 </i>
   </energy>
  </scstep>
  <scstep>
   <time name="diag">   10.59   10.85</time>
   <time name="diis">   28.28   28.76</time>
   <time name="orth">    3.03    3.04</time>
   <time name="total">   44.32   45.10</time>
   <energy>
    <i name="e_fr_energy">   -283.21692033 </i>
    <i name="e_wo_entrp">   -282.00302295 </i>
    <i name="e_0_energy">   -282.60997164 </i>
   </energy>
  </scstep>
  <scstep>
   <time name="diag">   10.92   11.00</time>
   <time name="diis">   29.52   30.07</time>
   <time name="orth">    2.98    3.01</time>
   <time name="total">   46.41   47.18</time>
   <energy>
    <i name="e_fr_energy">   -243.08983536 </i>
    <i name="e_wo_entrp">   -241.31006025 </i>
    <i name="e_0_energy">   -242.19994780 </i>
   </energy>
  </scstep>
  <scstep>
   <time name="diag">   10.82   10.87</time>
   <time name="diis">   30.07   30.17</time>
   <time name="orth">    3.04    3.06</time>
   <time name="total">   46.42   46.66</time>
   <energy>
    <i name="e_fr_energy">   -257.42562212 </i>
    <i name="e_wo_entrp">   -256.13120624 </i>
    <i name="e_0_energy">   -256.77841418 </i>
   </energy>
  </scstep>
  <scstep>
   <time name="diag">   10.69   10.73</time>
   <time name="diis">   29.29   29.56</time>
   <time name="orth">    2.95    2.98</time>
   <time name="total">   46.87   47.23</time>
   <energy>
    <i name="e_fr_energy">   -245.68638044 </i>
    <i name="e_wo_entrp">   -243.83561612 </i>
    <i name="e_0_energy">   -244.76099828 </i>
   </energy>
  </scstep>
  <scstep>
   <time name="diag">   10.55   10.66</time>
   <time name="diis">   28.15   28.60</time>
   <time name="orth">    3.00    3.02</time>
   <time name="total">   44.14   44.75</time>
   <energy>
    <i name="e_fr_energy">   -239.21600114 </i>
    <i name="e_wo_entrp">   -237.21946426 </i>
    <i name="e_0_energy">   -238.21773270 </i>
   </energy>
  </scstep>
  <scstep>
   <time name="diag">   10.91   11.03</time>
   <time name="diis">   28.98   29.22</time>
   <time name="orth">    3.00    3.03</time>
   <time name="total">   45.70   46.16</time>
   <energy>
    <i name="e_fr_energy">   -238.68321929 </i>
    <i name="e_wo_entrp">   -236.60764124 </i>
    <i name="e_0_energy">   -237.64543027 </i>
   </energy>
  </scstep>
  <scstep>
   <time name="diag">   10.57   10.75</time>
   <time name="diis">   29.97   30.26</time>
   <time name="orth">    2.98    3.11</time>
   <time name="total">   46.76   47.95</time>
   <energy>
    <i name="e_fr_energy">   -238.54910996 </i>
    <i name="e_wo_entrp">   -236.46122840 </i>
    <i name="e_0_energy">   -237.50516918 </i>
   </energy>
  </scstep>
  <scstep>
   <time name="diag">   10.89   10.88</time>
   <time name="diis">   28.91   29.04</time>
   <time name="orth">    2.89    2.94</time>
   <time name="total">   45.70   46.10</time>
   <energy>
    <i name="e_fr_energy">   -238.49264285 </i>
    <i name="e_wo_entrp">   -236.41020778 </i>
    <i name="e_0_energy">   -237.45142531 </i>
   </energy>
  </scstep>
  <scstep>
   <time name="diag">   10.95   10.96</time>
   <time name="diis">   30.13   30.20</time>
   <time name="orth">    3.12    3.13</time>
   <time name="total">   46.62   46.73</time>
   <energy>
    <i name="e_fr_energy">   -238.48237445 </i>
    <i name="e_wo_entrp">   -236.40240997 </i>
    <i name="e_0_energy">   -237.44239221 </i>
   </energy>
  </scstep>
  <scstep>
   <time name="diag">   10.98   10.98</time>
   <time name="diis">   29.71   29.70</time>
   <time name="orth">    3.07    3.10</time>
   <time name="total">   46.74   47.11</time>
   <energy>
    <i name="e_fr_energy">   -238.46029646 </i>
    <i name="e_wo_entrp">   -236.37551523 </i>
    <i name="e_0_energy">   -237.41790585 </i>
   </energy>
  </scstep>
  <scstep>
   <time name="diag">   10.85   10.84</time>
   <time name="diis">   29.77   30.48</time>
   <time name="orth">    3.00    3.00</time>
   <time name="total">   46.11   46.85</time>
   <energy>
    <i name="e_fr_energy">   -238.45172719 </i>
    <i name="e_wo_entrp">   -236.36142220 </i>
    <i name="e_0_energy">   -237.40657469 </i>
   </energy>
  </scstep>
  <scstep>
   <time name="diag">   10.79   10.87</time>
   <time name="diis">   29.02   29.30</time>
   <time name="orth">    2.95    3.04</time>
   <time name="total">   45.13   45.67</time>
   <energy>
    <i name="e_fr_energy">   -238.45073888 </i>
    <i name="e_wo_entrp">   -236.35691132 </i>
    <i name="e_0_energy">   -237.40382510 </i>
   </energy>
  </scstep>
  <scstep>
   <time name="diag">   10.60   10.75</time>
   <time name="diis">   29.19   29.34</time>
   <time name="orth">    3.07    3.09</time>
   <time name="total">   45.24   45.68</time>
   <energy>
    <i name="e_fr_energy">   -238.44904795 </i>
    <i name="e_wo_entrp">   -236.35756808 </i>
    <i name="e_0_energy">   -237.40330801 </i>
   </energy>
  </scstep>
  <scstep>
   <time name="diag">   11.01   11.13</time>
   <time name="diis">   29.27   29.67</time>
   <time name="orth">    3.14    3.15</time>
   <time name="total">   46.71   47.79</time>
   <energy>
    <i name="e_fr_energy">   -238.44859628 </i>
    <i name="e_wo_entrp">   -236.35805283 </i>
    <i name="e_0_energy">   -237.40332456 </i>
   </energy>
  </scstep>
  <scstep>
   <time name="diag">   10.89   10.97</time>
   <time name="diis">   30.02   30.95</time>
   <time name="orth">    3.00    3.07</time>
   <time name="total">   46.38   47.52</time>
   <energy>
    <i name="e_fr_energy">   -238.44850640 </i>
    <i name="e_wo_entrp">   -236.35847433 </i>
    <i name="e_0_energy">   -237.40349037 </i>
   </energy>
  </scstep>
  <scstep>
   <time name="diag">   11.07   11.10</time>
   <time name="diis">   30.17   30.23</time>
   <time name="orth">    3.08    3.13</time>
   <time name="total">   47.51   47.72</time>
   <energy>
    <i name="e_fr_energy">   -238.44859398 </i>
    <i name="e_wo_entrp">   -236.35842926 </i>
    <i name="e_0_energy">   -237.40351162 </i>
   </energy>
  </scstep>
  <scstep>
   <time name="diag">   10.98   10.99</time>
   <time name="diis">   29.73   29.76</time>
   <time name="orth">    3.13    3.16</time>
   <time name="total">   46.30   46.40</time>
   <energy>
    <i name="e_fr_energy">   -238.44880973 </i>
    <i name="e_wo_entrp">   -236.35851927 </i>
    <i name="e_0_energy">   -237.40366450 </i>
   </energy>
  </scstep>
  <scstep>
   <time name="diag">   10.93   10.94</time>
   <time name="diis">   29.75   30.14</time>
   <time name="orth">    6.83    6.82</time>
   <time name="total">   49.95   50.36</time>
   <energy>
    <i name="e_fr_energy">   -238.44898536 </i>
    <i name="e_wo_entrp">   -236.35871167 </i>
    <i name="e_0_energy">   -237.40384852 </i>
   </energy>
  </scstep>
  <scstep>
   <time name="diag">   10.86   10.85</time>
   <time name="diis">   29.32   29.37</time>
   <time name="orth">    3.02    3.08</time>
   <time name="total">   45.63   45.74</time>
   <energy>
    <i name="e_fr_energy">   -238.44922524 </i>
    <i name="e_wo_entrp">   -236.35883490 </i>
    <i name="e_0_energy">   -237.40403007 </i>
   </energy>
  </scstep>
  <scstep>
   <time name="diag">   11.09   11.14</time>
   <time name="diis">   28.99   29.34</time>
   <time name="orth">    3.15    3.15</time>
   <time name="total">   45.69   46.14</time>
   <energy>
    <i name="e_fr_energy">   -238.44939734 </i>
    <i name="e_wo_entrp">   -236.35891968 </i>
    <i name="e_0_energy">   -237.40415851 </i>
   </energy>
  </scstep>
  <scstep>
   <time name="diag">   10.81   10.84</time>
   <time name="diis">   28.53   28.84</time>
   <time name="orth">    3.04    3.08</time>
   <time name="total">   44.75   45.15</time>
   <energy>
    <i name="e_fr_energy">   -238.44985310 </i>
    <i name="e_wo_entrp">   -236.35960442 </i>
    <i name="e_0_energy">   -237.40472876 </i>
   </energy>
  </scstep>
  <scstep>
   <time name="diag">   10.83   10.94</time>
   <time name="diis">   28.71   29.00</time>
   <time name="orth">    2.93    3.06</time>
   <time name="total">   44.98   45.55</time>
   <energy>
    <i name="e_fr_energy">   -238.45005783 </i>
    <i name="e_wo_entrp">   -236.35980914 </i>
    <i name="e_0_energy">   -237.40493348 </i>
   </energy>
  </scstep>
  <scstep>
   <time name="diag">   10.94   10.95</time>
   <time name="diis">   24.56   24.54</time>
   <time name="orth">    3.01    3.04</time>
   <time name="total">   40.98   41.03</time>
   <energy>
    <i name="e_fr_energy">   -238.45023954 </i>
    <i name="e_wo_entrp">   -236.35989755 </i>
    <i name="e_0_energy">   -237.40506855 </i>
   </energy>
  </scstep>
  <scstep>
   <time name="diag">   10.88   10.89</time>
   <time name="diis">   24.06   24.07</time>
   <time name="orth">    3.00    3.03</time>
   <time name="total">   40.44   40.51</time>
   <energy>
    <i name="e_fr_energy">   -238.45042392 </i>
    <i name="e_wo_entrp">   -236.36002370 </i>
    <i name="e_0_energy">   -237.40522381 </i>
   </energy>
  </scstep>
  <scstep>
   <time name="diag">   10.80   10.81</time>
   <time name="diis">   21.21   21.30</time>
   <time name="orth">    3.01    3.01</time>
   <time name="total">   37.41   37.56</time>
   <energy>
    <i name="e_fr_energy">   -238.45051505 </i>
    <i name="e_wo_entrp">   -236.36011685 </i>
    <i name="e_0_energy">   -237.40531595 </i>
   </energy>
  </scstep>
  <scstep>
   <time name="diag">   11.20   11.19</time>
   <time name="diis">   21.28   21.28</time>
   <time name="orth">    3.07    3.08</time>
   <time name="total">   38.97   38.96</time>
   <energy>
    <i name="e_fr_energy">   -238.45064306 </i>
    <i name="e_wo_entrp">   -236.36022945 </i>
    <i name="e_0_energy">   -237.40543626 </i>
   </energy>
  </scstep>
  <scstep>
   <time name="diag">   11.06   11.06</time>
   <time name="diis">   19.23   19.32</time>
   <time name="orth">    3.11    3.11</time>
   <time name="total">   35.82   35.93</time>
   <energy>
    <i name="e_fr_energy">   -238.45068780 </i>
    <i name="e_wo_entrp">   -236.36026689 </i>
    <i name="e_0_energy">   -237.40547735 </i>
   </energy>
  </scstep>
  <scstep>
   <time name="diag">   10.83   10.85</time>
   <time name="diis">   18.18   18.25</time>
   <time name="orth">    2.94    3.04</time>
   <time name="total">   34.50   34.89</time>
   <energy>
    <i name="e_fr_energy">   -238.45072525 </i>
    <i name="e_wo_entrp">   -236.36030220 </i>
    <i name="e_0_energy">   -237.40551372 </i>
   </energy>
  </scstep>
  <scstep>
   <time name="diag">   10.86   10.88</time>
   <time name="diis">   16.91   16.91</time>
   <time name="orth">    3.01    3.14</time>
   <time name="total">   33.18   33.34</time>
   <energy>
    <i name="e_fr_energy">   -238.45073741 </i>
    <i name="e_wo_entrp">   -236.36031867 </i>
    <i name="e_0_energy">   -237.40552804 </i>
   </energy>
  </scstep>
  <scstep>
   <time name="diag">   10.68   10.70</time>
   <time name="diis">   17.62   17.61</time>
   <time name="orth">    2.95    2.97</time>
   <time name="total">   33.69   33.75</time>
   <energy>
    <i name="e_fr_energy">   -238.45074891 </i>
    <i name="e_wo_entrp">   -236.36033941 </i>
    <i name="e_0_energy">   -237.40554416 </i>
   </energy>
  </scstep>
  <scstep>
   <time name="diag">   10.78   10.78</time>
   <time name="diis">   14.69   14.85</time>
   <time name="orth">    2.96    3.03</time>
   <time name="total">   30.87   31.12</time>
   <energy>
    <i name="e_fr_energy">   -238.45075081 </i>
    <i name="e_wo_entrp">   -236.36034329 </i>
    <i name="e_0_energy">   -237.40554705 </i>
   </energy>
  </scstep>
  <scstep>
   <time name="diag">   10.59   10.84</time>
   <time name="diis">   14.50   14.65</time>
   <time name="orth">    3.01    3.03</time>
   <time name="total">   31.32   31.78</time>
   <energy>
    <i name="e_fr_energy">   -238.45075238 </i>
    <i name="e_wo_entrp">   -236.36034567 </i>
    <i name="e_0_energy">   -237.40554903 </i>
   </energy>
  </scstep>
  <scstep>
   <time name="diag">   10.94   10.94</time>
   <time name="diis">   14.21   14.29</time>
   <time name="orth">    3.10    3.12</time>
   <time name="total">   30.62   30.77</time>
   <energy>
    <i name="e_fr_energy">   -238.45075362 </i>
    <i name="e_wo_entrp">   -236.36034664 </i>
    <i name="e_0_energy">   -237.40555013 </i>
   </energy>
  </scstep>
  <scstep>
   <time name="diag">   10.74   10.81</time>
   <time name="diis">   15.12   15.13</time>
   <time name="orth">    3.10    3.18</time>
   <time name="total">   31.69   31.95</time>
   <energy>
    <i name="e_fr_energy">   -238.45075490 </i>
    <i name="e_wo_entrp">   -236.36034693 </i>
    <i name="e_0_energy">   -237.40555091 </i>
   </energy>
  </scstep>
  <scstep>
   <time name="diag">   10.74   10.77</time>
   <time name="diis">   13.60   13.66</time>
   <time name="orth">    3.00    3.02</time>
   <time name="total">   27.42   27.54</time>
   <energy>
    <i name="alphaZ">    958.22283780 </i>
    <i name="ewald">  91969.07086208 </i>
    <i name="hartreedc">-120142.74231182 </i>
    <i name="XCdc">    144.12044849 </i>
    <i name="pawpsdc">  32430.66784161 </i>
    <i name="pawaedc"> -31512.05617992 </i>
    <i name="eentropy">     -2.09040791 </i>
    <i name="bandstr">   -663.36445640 </i>
    <i name="atom">  26579.72061084 </i>
    <i name="e_fr_energy">   -238.45075522 </i>
    <i name="e_wo_entrp">   -236.36034731 </i>
    <i name="e_0_energy">   -237.40555127 </i>
   </energy>
  </scstep>
  <structure>
   <crystal>
    <varray name="basis" >
     <v>       8.42164176       0.00000000       0.00000000 </v>
     <v>       4.21082088       7.29335571       0.00000000 </v>
     <v>       0.00000000       0.00000000      21.87624171 </v>
    </varray>
    <i name="volume">   1343.68315334 </i>
    <varray name="rec_basis" >
     <v>       0.11874169      -0.06855555       0.00000000 </v>
     <v>       0.00000000       0.13711110       0.00000000 </v>
     <v>       0.00000000       0.00000000       0.04571169 </v>
    </varray>
   </crystal>
   <varray name="positions" >
    <v>       0.00000000       0.00000000       0.34283768 </v>
    <v>       0.33333333       0.00000000       0.34283768 </v>
    <v>       0.66666667       0.00000000       0.34283768 </v>
    <v>       0.00000000       0.33333333       0.34283768 </v>
    <v>       0.33333333       0.33333333       0.34283768 </v>
    <v>       0.66666667       0.33333333       0.34283768 </v>
    <v>       0.00000000       0.66666667       0.34283768 </v>
    <v>       0.33333333       0.66666667       0.34283768 </v>
    <v>       0.66666667       0.66666667       0.34283768 </v>
    <v>       0.11111111       0.11111111       0.44761256 </v>
    <v>       0.44444444       0.11111111       0.44761256 </v>
    <v>       0.77777778       0.11111111       0.44761256 </v>
    <v>       0.11111111       0.44444444       0.44761256 </v>
    <v>       0.44444444       0.44444444       0.44761256 </v>
    <v>       0.77777778       0.44444444       0.44761256 </v>
    <v>       0.11111111       0.77777778       0.44761256 </v>
    <v>       0.44444444       0.77777778       0.44761256 </v>
    <v>       0.77777778       0.77777778       0.44761256 </v>
    <v>       0.88790222       0.22121765       0.55213218 </v>
    <v>       0.22358615       0.22081049       0.55197618 </v>
    <v>       0.55640685       0.21988459       0.55223492 </v>
    <v>       0.88990368       0.55329080       0.55132647 </v>
    <v>       0.22395618       0.55048403       0.55254880 </v>
    <v>       0.55769119       0.55138906       0.55206664 </v>
    <v>       0.88721118       0.88748435       0.55258314 </v>
    <v>       0.22266797       0.88596527       0.54973665 </v>
    <v>       0.55756456       0.88701746       0.55189827 </v>
    <v>       0.00390818       0.99421236       0.65572891 </v>
    <v>       0.33242872       0.99195314       0.65497058 </v>
    <v>       0.66680215       0.99803322       0.66273322 </v>
    <v>       0.00384358       0.32912564       0.65670864 </v>
    <v>       0.33739996       0.32656769       0.66286060 </v>
    <v>       0.67347341       0.33383433       0.66170596 </v>
    <v>       0.00243905       0.66215710       0.65684742 </v>
    <v>       0.33398374       0.66376386       0.65568232 </v>
    <v>       0.66943695       0.66381797       0.65655716 </v>
    <v>       0.52119926       0.18128566       0.73155188 </v>
    <v>       0.61785212       0.27910450       0.75001914 </v>
    <v>       0.46771759       0.12489046       0.76608797 </v>
    <v>       0.53217288       0.41018857       0.77374261 </v>
    <v>       0.74795166       0.19438634       0.77434508 </v>
   </varray>
  </structure>
  <varray name="forces" >
   <v>      -0.02052036       0.04126068      -0.07059020 </v>
   <v>       0.02538073       0.01990713      -0.10003924 </v>
   <v>      -0.00305379       0.01011140      -0.05894066 </v>
   <v>      -0.00202764      -0.00930115      -0.05776970 </v>
   <v>       0.00068398       0.00542251      -0.05745150 </v>
   <v>       0.00432729       0.01272706      -0.07915185 </v>
   <v>       0.00952588       0.01487522      -0.04038236 </v>
   <v>       0.02101827      -0.02509173      -0.07182713 </v>
   <v>      -0.01841497       0.01676676      -0.05930912 </v>
   <v>       0.01447574      -0.01985723      -0.11285742 </v>
   <v>      -0.04723719      -0.03818962       0.10392274 </v>
   <v>       0.01241909      -0.04731445       0.17016562 </v>
   <v>       0.03619456      -0.02474464       0.16488748 </v>
   <v>      -0.02628432       0.01180059       0.16835168 </v>
   <v>      -0.03458646      -0.03788167       0.15937188 </v>
   <v>      -0.02496625      -0.02782553      -0.11093206 </v>
   <v>       0.00349954       0.00011450      -0.11322311 </v>
   <v>       0.01644138       0.02044842       0.16427007 </v>
   <v>       0.00208181      -0.00136357       0.00596466 </v>
   <v>       0.00345491       0.00243112       0.00088049 </v>
   <v>       0.00366897       0.00179648      -0.00116480 </v>
   <v>       0.00562695      -0.00089793       0.00601393 </v>
   <v>       0.00386184       0.00375083       0.00161066 </v>
   <v>      -0.00630707      -0.00132777       0.00450310 </v>
   <v>       0.00639359       0.00241944       0.00636127 </v>
   <v>      -0.00055548       0.00432310       0.01849594 </v>
   <v>       0.00076238       0.00224034       0.00396959 </v>
   <v>       0.00957740       0.00114393      -0.00723959 </v>
   <v>      -0.00202322       0.00148180       0.00059287 </v>
   <v>      -0.00132973      -0.00352041      -0.00376622 </v>
   <v>      -0.00012589       0.00614858      -0.00211326 </v>
   <v>       0.00621306       0.00431884      -0.00217377 </v>
   <v>       0.01150342       0.00799852      -0.00801754 </v>
   <v>       0.00190452       0.00520787      -0.00081515 </v>
   <v>       0.00214597       0.01239389      -0.00155863 </v>
   <v>      -0.00138046       0.00542832      -0.00306109 </v>
   <v>      -0.00858062      -0.00045906       0.00000626 </v>
   <v>      -0.00523660       0.01562193      -0.00343078 </v>
   <v>      -0.00459518       0.01768154      -0.00568784 </v>
   <v>      -0.00497919      -0.00763380      -0.00243063 </v>
   <v>       0.01104315      -0.00241226      -0.00543456 </v>
  </varray>
  <varray name="stress" >
   <v>     -42.07138066       1.03548602      -0.04504895 </v>
   <v>       1.03548602     -43.64651556       0.39895969 </v>
   <v>      -0.04504900       0.39895965      -0.40223554 </v>
  </varray>
  <energy>
   <i name="e_fr_energy">   -238.45075522 </i>
   <i name="e_wo_entrp">   -237.40555127 </i>
   <i name="e_0_energy">     -2.09040791 </i>
  </energy>
  <time name="totalsc"> 1896.33 1912.51</time>
  <eigenvalues>
   <array>
    <dimension dim="1">band</dimension>
    <dimension dim="2">kpoint</dimension>
    <dimension dim="3">spin</dimension>
    <field>eigene</field>
    <field>occ</field>
    <set>
     <set comment="spin 1">
      <set comment="kpoint 1">
       <r>  -13.1043    1.0000 </r>
       <r>   -8.8338    1.0000 </r>
       <r>   -7.7472    1.0000 </r>
       <r>   -6.4962    1.0000 </r>
       <r>   -5.8780    1.0000 </r>
       <r>   -5.4593    1.0000 </r>
       <r>   -5.4119    1.0000 </r>
       <r>   -5.3554    1.0000 </r>
       <r>   -5.2953    1.0000 </r>
       <r>   -5.2446    1.0000 </r>
       <r>   -5.2340    1.0000 </r>
       <r>   -5.1623    1.0000 </r>
       <r>   -5.1421    1.0000 </r>
       <r>   -5.0332    1.0000 </r>
       <r>   -4.7666    1.0000 </r>
       <r>   -4.7034    1.0000 </r>
       <r>   -4.6819    1.0000 </r>
       <r>   -4.6636    1.0000 </r>
       <r>   -4.6523    1.0000 </r>
       <r>   -4.6311    1.0000 </r>
       <r>   -4.4315    1.0000 </r>
       <r>   -4.2175    1.0000 </r>
       <r>   -4.2013    1.0000 </r>
       <r>   -4.1934    1.0000 </r>
       <r>   -4.1421    1.0000 </r>
       <r>   -4.1342    1.0000 </r>
       <r>   -4.0915    1.0000 </r>
       <r>   -4.0264    1.0000 </r>
       <r>   -4.0079    1.0000 </r>
       <r>   -3.9559    1.0000 </r>
       <r>   -3.8951    1.0000 </r>
       <r>   -3.8689    1.0000 </r>
       <r>   -3.8328    1.0000 </r>
       <r>   -3.7979    1.0000 </r>
       <r>   -3.7857    1.0000 </r>
       <r>   -3.7557    1.0000 </r>
       <r>   -3.7505    1.0000 </r>
       <r>   -3.7222    1.0000 </r>
       <r>   -3.7178    1.0000 </r>
       <r>   -3.6963    1.0000 </r>
       <r>   -3.6747    1.0000 </r>
       <r>   -3.6206    1.0000 </r>
       <r>   -3.5478    1.0000 </r>
       <r>   -3.5342    1.0000 </r>
       <r>   -3.3669    1.0000 </r>
       <r>   -3.1839    1.0000 </r>
       <r>   -3.1610    1.0000 </r>
       <r>   -3.1158    1.0000 </r>
       <r>   -3.1089    1.0000 </r>
       <r>   -3.0968    1.0000 </r>
       <r>   -3.0614    1.0000 </r>
       <r>   -3.0255    1.0000 </r>
       <r>   -2.9738    1.0000 </r>
       <r>   -2.9424    1.0000 </r>
       <r>   -2.8633    1.0000 </r>
       <r>   -2.8384    1.0000 </r>
       <r>   -2.8063    1.0000 </r>
       <r>   -2.7907    1.0000 </r>
       <r>   -2.7813    1.0000 </r>
       <r>   -2.3803    1.0000 </r>
       <r>   -2.3554    1.0000 </r>
       <r>   -2.2999    1.0000 </r>
       <r>   -2.2472    1.0000 </r>
       <r>   -2.2260    1.0000 </r>
       <r>   -2.2236    1.0000 </r>
       <r>   -2.1962    1.0000 </r>
       <r>   -2.1472    1.0000 </r>
       <r>   -2.1286    1.0000 </r>
       <r>   -2.1222    1.0000 </r>
       <r>   -2.1102    1.0000 </r>
       <r>   -2.1066    1.0000 </r>
       <r>   -2.0758    1.0000 </r>
       <r>   -2.0341    1.0000 </r>
       <r>   -2.0246    1.0000 </r>
       <r>   -1.9936    1.0000 </r>
       <r>   -1.9730    1.0000 </r>
       <r>   -1.9694    1.0000 </r>
       <r>   -1.9360    1.0000 </r>
       <r>   -1.8932    1.0000 </r>
       <r>   -1.8846    1.0000 </r>
       <r>   -1.8653    1.0000 </r>
       <r>   -1.8519    1.0000 </r>
       <r>   -1.8269    1.0000 </r>
       <r>   -1.7753    1.0000 </r>
       <r>   -1.7675    1.0000 </r>
       <r>   -1.7421    1.0000 </r>
       <r>   -1.7035    1.0000 </r>
       <r>   -1.6243    1.0000 </r>
       <r>   -1.5952    1.0000 </r>
       <r>   -1.5745    1.0000 </r>
       <r>   -1.5676    1.0000 </r>
       <r>   -1.5336    1.0000 </r>
       <r>   -1.5149    1.0000 </r>
       <r>   -1.5013    1.0000 </r>
       <r>   -1.4839    1.0000 </r>
       <r>   -1.4810    1.0000 </r>
       <r>   -1.4573    1.0000 </r>
       <r>   -1.4302    1.0000 </r>
       <r>   -1.3998    1.0000 </r>
       <r>   -1.3863    1.0000 </r>
       <r>   -1.3683    1.0000 </r>
       <r>   -1.3530    1.0000 </r>
       <r>   -1.3467    1.0000 </r>
       <r>   -1.2822    1.0000 </r>
       <r>   -1.2757    1.0000 </r>
       <r>   -1.2244    1.0000 </r>
       <r>   -1.2066    1.0000 </r>
       <r>   -1.2052    1.0000 </r>
       <r>   -1.1752    1.0000 </r>
       <r>   -1.1407    1.0000 </r>
       <r>   -1.1145    1.0000 </r>
       <r>   -1.0406    1.0000 </r>
       <r>   -1.0058    1.0000 </r>
       <r>   -0.8906    1.0000 </r>
       <r>   -0.8257    1.0000 </r>
       <r>   -0.8122    1.0000 </r>
       <r>   -0.7690    1.0000 </r>
       <r>   -0.7089    1.0000 </r>
       <r>   -0.6884    1.0000 </r>
       <r>   -0.6320    1.0000 </r>
       <r>   -0.6121    1.0000 </r>
       <r>   -0.5972    1.0000 </r>
       <r>   -0.5622    1.0000 </r>
       <r>   -0.5558    1.0000 </r>
       <r>   -0.5043    1.0000 </r>
       <r>   -0.4662    1.0000 </r>
       <r>   -0.4396    1.0000 </r>
       <r>   -0.3682    1.0000 </r>
       <r>   -0.3616    1.0000 </r>
       <r>   -0.2980    1.0000 </r>
       <r>   -0.1925    1.0000 </r>
       <r>   -0.1726    1.0000 </r>
       <r>   -0.1359    1.0000 </r>
       <r>   -0.1036    1.0000 </r>
       <r>   -0.0568    1.0000 </r>
       <r>   -0.0411    1.0000 </r>
       <r>   -0.0314    1.0000 </r>
       <r>   -0.0117    1.0000 </r>
       <r>    0.0089    1.0000 </r>
       <r>    0.0544    1.0000 </r>
       <r>    0.0902    1.0000 </r>
       <r>    0.0925    1.0000 </r>
       <r>    0.1724    1.0000 </r>
       <r>    0.1885    1.0000 </r>
       <r>    0.2097    1.0000 </r>
       <r>    0.2710    1.0000 </r>
       <r>    0.2884    1.0000 </r>
       <r>    0.3239    1.0000 </r>
       <r>    0.3382    1.0000 </r>
       <r>    0.3582    1.0000 </r>
       <r>    0.3951    1.0000 </r>
       <r>    0.4272    1.0000 </r>
       <r>    0.5232    0.9999 </r>
       <r>    0.5358    0.9999 </r>
       <r>    0.5564    0.9999 </r>
       <r>    0.5665    0.9999 </r>
       <r>    0.5984    0.9998 </r>
       <r>    0.6147    0.9998 </r>
       <r>    0.6217    0.9998 </r>
       <r>    0.6359    0.9998 </r>
       <r>    0.6937    0.9996 </r>
       <r>    0.6982    0.9996 </r>
       <r>    0.7395    0.9994 </r>
       <r>    0.7597    0.9992 </r>
       <r>    0.7831    0.9990 </r>
       <r>    0.7854    0.9990 </r>
       <r>    0.8145    0.9987 </r>
       <r>    0.8382    0.9983 </r>
       <r>    0.8549    0.9980 </r>
       <r>    0.8665    0.9978 </r>
       <r>    0.8943    0.9970 </r>
       <r>    0.9130    0.9964 </r>
       <r>    0.9275    0.9959 </r>
       <r>    0.9292    0.9958 </r>
       <r>    0.9596    0.9943 </r>
       <r>    0.9634    0.9941 </r>
       <r>    1.0061    0.9910 </r>
       <r>    1.0192    0.9898 </r>
       <r>    1.0549    0.9855 </r>
       <r>    1.0980    0.9778 </r>
       <r>    1.1068    0.9758 </r>
       <r>    1.1231    0.9716 </r>
       <r>    1.1432    0.9655 </r>
       <r>    1.1573    0.9605 </r>
       <r>    1.1918    0.9452 </r>
       <r>    1.1945    0.9437 </r>
       <r>    1.2144    0.9321 </r>
       <r>    1.2463    0.9090 </r>
       <r>    1.2526    0.9037 </r>
       <r>    1.2709    0.8865 </r>
       <r>    1.2808    0.8762 </r>
       <r>    1.2943    0.8608 </r>
       <r>    1.3009    0.8527 </r>
       <r>    1.3863    0.7114 </r>
       <r>    1.5026    0.4350 </r>
       <r>    1.5077    0.4226 </r>
       <r>    1.5185    0.3965 </r>
       <r>    1.5361    0.3551 </r>
       <r>    1.5523    0.3191 </r>
       <r>    1.5901    0.2429 </r>
       <r>    1.8465    0.0241 </r>
       <r>    1.9019    0.0140 </r>
       <r>    2.0435    0.0034 </r>
       <r>    2.2317    0.0005 </r>
       <r>    2.3846    0.0001 </r>
       <r>    2.4291    0.0001 </r>
       <r>    2.5624    0.0000 </r>
       <r>    3.2841    0.0000 </r>
       <r>    3.5839    0.0000 </r>
       <r>    4.1256    0.0000 </r>
       <r>    4.5009    0.0000 </r>
       <r>    4.6605    0.0000 </r>
       <r>    4.8701    0.0000 </r>
       <r>    5.2397    0.0000 </r>
       <r>    5.3398    0.0000 </r>
       <r>    5.7511    0.0000 </r>
       <r>    5.7917    0.0000 </r>
       <r>    5.9405    0.0000 </r>
       <r>    6.2217    0.0000 </r>
       <r>    6.2909    0.0000 </r>
       <r>    6.4629    0.0000 </r>
       <r>    6.6536    0.0000 </r>
       <r>    6.7398    0.0000 </r>
       <r>    6.7619    0.0000 </r>
       <r>    6.9199    0.0000 </r>
      </set>
      <set comment="kpoint 2">
       <r>  -13.1044    1.0000 </r>
       <r>   -8.8331    1.0000 </r>
       <r>   -7.7476    1.0000 </r>
       <r>   -6.4966    1.0000 </r>
       <r>   -5.8795    1.0000 </r>
       <r>   -5.4919    1.0000 </r>
       <r>   -5.3783    1.0000 </r>
       <r>   -5.3395    1.0000 </r>
       <r>   -5.2975    1.0000 </r>
       <r>   -5.2484    1.0000 </r>
       <r>   -5.2295    1.0000 </r>
       <r>   -5.1784    1.0000 </r>
       <r>   -5.1466    1.0000 </r>
       <r>   -5.0293    1.0000 </r>
       <r>   -4.7383    1.0000 </r>
       <r>   -4.7055    1.0000 </r>
       <r>   -4.6793    1.0000 </r>
       <r>   -4.6732    1.0000 </r>
       <r>   -4.6650    1.0000 </r>
       <r>   -4.6381    1.0000 </r>
       <r>   -4.4188    1.0000 </r>
       <r>   -4.2242    1.0000 </r>
       <r>   -4.1998    1.0000 </r>
       <r>   -4.1897    1.0000 </r>
       <r>   -4.1586    1.0000 </r>
       <r>   -4.1303    1.0000 </r>
       <r>   -4.0644    1.0000 </r>
       <r>   -4.0449    1.0000 </r>
       <r>   -4.0089    1.0000 </r>
       <r>   -3.9465    1.0000 </r>
       <r>   -3.8823    1.0000 </r>
       <r>   -3.8681    1.0000 </r>
       <r>   -3.8309    1.0000 </r>
       <r>   -3.8044    1.0000 </r>
       <r>   -3.7923    1.0000 </r>
       <r>   -3.7847    1.0000 </r>
       <r>   -3.7422    1.0000 </r>
       <r>   -3.7275    1.0000 </r>
       <r>   -3.7146    1.0000 </r>
       <r>   -3.7103    1.0000 </r>
       <r>   -3.6616    1.0000 </r>
       <r>   -3.6081    1.0000 </r>
       <r>   -3.5508    1.0000 </r>
       <r>   -3.5403    1.0000 </r>
       <r>   -3.3820    1.0000 </r>
       <r>   -3.1897    1.0000 </r>
       <r>   -3.1483    1.0000 </r>
       <r>   -3.1118    1.0000 </r>
       <r>   -3.1032    1.0000 </r>
       <r>   -3.0847    1.0000 </r>
       <r>   -3.0651    1.0000 </r>
       <r>   -3.0270    1.0000 </r>
       <r>   -2.9732    1.0000 </r>
       <r>   -2.9501    1.0000 </r>
       <r>   -2.8549    1.0000 </r>
       <r>   -2.8451    1.0000 </r>
       <r>   -2.8253    1.0000 </r>
       <r>   -2.7862    1.0000 </r>
       <r>   -2.7701    1.0000 </r>
       <r>   -2.3947    1.0000 </r>
       <r>   -2.3447    1.0000 </r>
       <r>   -2.3001    1.0000 </r>
       <r>   -2.2491    1.0000 </r>
       <r>   -2.2210    1.0000 </r>
       <r>   -2.2096    1.0000 </r>
       <r>   -2.1880    1.0000 </r>
       <r>   -2.1582    1.0000 </r>
       <r>   -2.1426    1.0000 </r>
       <r>   -2.1287    1.0000 </r>
       <r>   -2.1132    1.0000 </r>
       <r>   -2.0941    1.0000 </r>
       <r>   -2.0805    1.0000 </r>
       <r>   -2.0266    1.0000 </r>
       <r>   -2.0217    1.0000 </r>
       <r>   -2.0006    1.0000 </r>
       <r>   -1.9722    1.0000 </r>
       <r>   -1.9523    1.0000 </r>
       <r>   -1.9244    1.0000 </r>
       <r>   -1.9073    1.0000 </r>
       <r>   -1.8927    1.0000 </r>
       <r>   -1.8749    1.0000 </r>
       <r>   -1.8482    1.0000 </r>
       <r>   -1.8275    1.0000 </r>
       <r>   -1.8008    1.0000 </r>
       <r>   -1.7655    1.0000 </r>
       <r>   -1.7372    1.0000 </r>
       <r>   -1.7046    1.0000 </r>
       <r>   -1.6198    1.0000 </r>
       <r>   -1.6067    1.0000 </r>
       <r>   -1.5772    1.0000 </r>
       <r>   -1.5598    1.0000 </r>
       <r>   -1.5390    1.0000 </r>
       <r>   -1.5165    1.0000 </r>
       <r>   -1.4956    1.0000 </r>
       <r>   -1.4866    1.0000 </r>
       <r>   -1.4701    1.0000 </r>
       <r>   -1.4457    1.0000 </r>
       <r>   -1.4261    1.0000 </r>
       <r>   -1.4068    1.0000 </r>
       <r>   -1.3768    1.0000 </r>
       <r>   -1.3676    1.0000 </r>
       <r>   -1.3588    1.0000 </r>
       <r>   -1.3258    1.0000 </r>
       <r>   -1.2994    1.0000 </r>
       <r>   -1.2772    1.0000 </r>
       <r>   -1.2070    1.0000 </r>
       <r>   -1.2056    1.0000 </r>
       <r>   -1.2010    1.0000 </r>
       <r>   -1.1869    1.0000 </r>
       <r>   -1.1595    1.0000 </r>
       <r>   -1.1202    1.0000 </r>
       <r>   -1.0641    1.0000 </r>
       <r>   -0.9617    1.0000 </r>
       <r>   -0.8826    1.0000 </r>
       <r>   -0.8408    1.0000 </r>
       <r>   -0.8151    1.0000 </r>
       <r>   -0.7743    1.0000 </r>
       <r>   -0.7006    1.0000 </r>
       <r>   -0.6885    1.0000 </r>
       <r>   -0.6216    1.0000 </r>
       <r>   -0.6094    1.0000 </r>
       <r>   -0.5953    1.0000 </r>
       <r>   -0.5645    1.0000 </r>
       <r>   -0.5554    1.0000 </r>
       <r>   -0.4783    1.0000 </r>
       <r>   -0.4595    1.0000 </r>
       <r>   -0.4268    1.0000 </r>
       <r>   -0.3933    1.0000 </r>
       <r>   -0.3389    1.0000 </r>
       <r>   -0.2869    1.0000 </r>
       <r>   -0.1998    1.0000 </r>
       <r>   -0.1898    1.0000 </r>
       <r>   -0.1415    1.0000 </r>
       <r>   -0.0894    1.0000 </r>
       <r>   -0.0474    1.0000 </r>
       <r>   -0.0367    1.0000 </r>
       <r>   -0.0256    1.0000 </r>
       <r>   -0.0218    1.0000 </r>
       <r>    0.0004    1.0000 </r>
       <r>    0.0374    1.0000 </r>
       <r>    0.0744    1.0000 </r>
       <r>    0.0895    1.0000 </r>
       <r>    0.1354    1.0000 </r>
       <r>    0.1994    1.0000 </r>
       <r>    0.2152    1.0000 </r>
       <r>    0.2766    1.0000 </r>
       <r>    0.2859    1.0000 </r>
       <r>    0.3244    1.0000 </r>
       <r>    0.3441    1.0000 </r>
       <r>    0.3542    1.0000 </r>
       <r>    0.4039    1.0000 </r>
       <r>    0.4259    1.0000 </r>
       <r>    0.5284    0.9999 </r>
       <r>    0.5392    0.9999 </r>
       <r>    0.5617    0.9999 </r>
       <r>    0.5739    0.9999 </r>
       <r>    0.5900    0.9999 </r>
       <r>    0.6210    0.9998 </r>
       <r>    0.6271    0.9998 </r>
       <r>    0.6576    0.9997 </r>
       <r>    0.6931    0.9996 </r>
       <r>    0.6997    0.9996 </r>
       <r>    0.7352    0.9994 </r>
       <r>    0.7416    0.9994 </r>
       <r>    0.7738    0.9991 </r>
       <r>    0.7981    0.9989 </r>
       <r>    0.8113    0.9987 </r>
       <r>    0.8383    0.9983 </r>
       <r>    0.8616    0.9979 </r>
       <r>    0.8696    0.9977 </r>
       <r>    0.8896    0.9972 </r>
       <r>    0.9076    0.9966 </r>
       <r>    0.9252    0.9960 </r>
       <r>    0.9318    0.9957 </r>
       <r>    0.9508    0.9948 </r>
       <r>    0.9650    0.9940 </r>
       <r>    1.0009    0.9915 </r>
       <r>    1.0166    0.9900 </r>
       <r>    1.0579    0.9850 </r>
       <r>    1.0792    0.9815 </r>
       <r>    1.1108    0.9748 </r>
       <r>    1.1209    0.9722 </r>
       <r>    1.1417    0.9660 </r>
       <r>    1.1680    0.9562 </r>
       <r>    1.1794    0.9512 </r>
       <r>    1.1915    0.9453 </r>
       <r>    1.2166    0.9308 </r>
       <r>    1.2293    0.9221 </r>
       <r>    1.2577    0.8991 </r>
       <r>    1.2611    0.8960 </r>
       <r>    1.2735    0.8839 </r>
       <r>    1.2970    0.8575 </r>
       <r>    1.3049    0.8475 </r>
       <r>    1.4117    0.6564 </r>
       <r>    1.4934    0.4578 </r>
       <r>    1.5020    0.4365 </r>
       <r>    1.5289    0.3720 </r>
       <r>    1.5409    0.3442 </r>
       <r>    1.5544    0.3146 </r>
       <r>    1.5940    0.2359 </r>
       <r>    1.8200    0.0312 </r>
       <r>    1.8947    0.0150 </r>
       <r>    2.0894    0.0022 </r>
       <r>    2.2325    0.0005 </r>
       <r>    2.3713    0.0001 </r>
       <r>    2.4442    0.0001 </r>
       <r>    2.5397    0.0000 </r>
       <r>    3.2604    0.0000 </r>
       <r>    3.6133    0.0000 </r>
       <r>    4.1364    0.0000 </r>
       <r>    4.4890    0.0000 </r>
       <r>    4.6710    0.0000 </r>
       <r>    4.8545    0.0000 </r>
       <r>    5.2123    0.0000 </r>
       <r>    5.3675    0.0000 </r>
       <r>    5.7407    0.0000 </r>
       <r>    5.8120    0.0000 </r>
       <r>    5.9163    0.0000 </r>
       <r>    6.2435    0.0000 </r>
       <r>    6.3179    0.0000 </r>
       <r>    6.4471    0.0000 </r>
       <r>    6.6595    0.0000 </r>
       <r>    6.7193    0.0000 </r>
       <r>    6.7511    0.0000 </r>
       <r>    6.8896    0.0000 </r>
      </set>
      <set comment="kpoint 3">
       <r>  -13.1044    1.0000 </r>
       <r>   -8.8331    1.0000 </r>
       <r>   -7.7476    1.0000 </r>
       <r>   -6.4965    1.0000 </r>
       <r>   -5.8793    1.0000 </r>
       <r>   -5.4871    1.0000 </r>
       <r>   -5.3826    1.0000 </r>
       <r>   -5.3393    1.0000 </r>
       <r>   -5.2974    1.0000 </r>
       <r>   -5.2515    1.0000 </r>
       <r>   -5.2299    1.0000 </r>
       <r>   -5.1783    1.0000 </r>
       <r>   -5.1460    1.0000 </r>
       <r>   -5.0282    1.0000 </r>
       <r>   -4.7388    1.0000 </r>
       <r>   -4.7089    1.0000 </r>
       <r>   -4.6784    1.0000 </r>
       <r>   -4.6722    1.0000 </r>
       <r>   -4.6630    1.0000 </r>
       <r>   -4.6366    1.0000 </r>
       <r>   -4.4188    1.0000 </r>
       <r>   -4.2237    1.0000 </r>
       <r>   -4.2015    1.0000 </r>
       <r>   -4.1907    1.0000 </r>
       <r>   -4.1582    1.0000 </r>
       <r>   -4.1292    1.0000 </r>
       <r>   -4.0634    1.0000 </r>
       <r>   -4.0446    1.0000 </r>
       <r>   -4.0101    1.0000 </r>
       <r>   -3.9466    1.0000 </r>
       <r>   -3.8834    1.0000 </r>
       <r>   -3.8670    1.0000 </r>
       <r>   -3.8293    1.0000 </r>
       <r>   -3.8012    1.0000 </r>
       <r>   -3.7921    1.0000 </r>
       <r>   -3.7790    1.0000 </r>
       <r>   -3.7448    1.0000 </r>
       <r>   -3.7304    1.0000 </r>
       <r>   -3.7196    1.0000 </r>
       <r>   -3.7123    1.0000 </r>
       <r>   -3.6632    1.0000 </r>
       <r>   -3.6083    1.0000 </r>
       <r>   -3.5501    1.0000 </r>
       <r>   -3.5372    1.0000 </r>
       <r>   -3.3820    1.0000 </r>
       <r>   -3.1898    1.0000 </r>
       <r>   -3.1462    1.0000 </r>
       <r>   -3.1112    1.0000 </r>
       <r>   -3.1037    1.0000 </r>
       <r>   -3.0860    1.0000 </r>
       <r>   -3.0674    1.0000 </r>
       <r>   -3.0272    1.0000 </r>
       <r>   -2.9738    1.0000 </r>
       <r>   -2.9502    1.0000 </r>
       <r>   -2.8539    1.0000 </r>
       <r>   -2.8475    1.0000 </r>
       <r>   -2.8225    1.0000 </r>
       <r>   -2.7851    1.0000 </r>
       <r>   -2.7712    1.0000 </r>
       <r>   -2.3955    1.0000 </r>
       <r>   -2.3451    1.0000 </r>
       <r>   -2.3043    1.0000 </r>
       <r>   -2.2530    1.0000 </r>
       <r>   -2.2198    1.0000 </r>
       <r>   -2.2085    1.0000 </r>
       <r>   -2.1911    1.0000 </r>
       <r>   -2.1629    1.0000 </r>
       <r>   -2.1347    1.0000 </r>
       <r>   -2.1270    1.0000 </r>
       <r>   -2.1121    1.0000 </r>
       <r>   -2.0917    1.0000 </r>
       <r>   -2.0798    1.0000 </r>
       <r>   -2.0342    1.0000 </r>
       <r>   -2.0196    1.0000 </r>
       <r>   -2.0031    1.0000 </r>
       <r>   -1.9689    1.0000 </r>
       <r>   -1.9524    1.0000 </r>
       <r>   -1.9238    1.0000 </r>
       <r>   -1.9115    1.0000 </r>
       <r>   -1.8943    1.0000 </r>
       <r>   -1.8740    1.0000 </r>
       <r>   -1.8463    1.0000 </r>
       <r>   -1.8213    1.0000 </r>
       <r>   -1.7946    1.0000 </r>
       <r>   -1.7626    1.0000 </r>
       <r>   -1.7376    1.0000 </r>
       <r>   -1.7122    1.0000 </r>
       <r>   -1.6204    1.0000 </r>
       <r>   -1.6021    1.0000 </r>
       <r>   -1.5813    1.0000 </r>
       <r>   -1.5644    1.0000 </r>
       <r>   -1.5408    1.0000 </r>
       <r>   -1.5169    1.0000 </r>
       <r>   -1.4978    1.0000 </r>
       <r>   -1.4869    1.0000 </r>
       <r>   -1.4617    1.0000 </r>
       <r>   -1.4426    1.0000 </r>
       <r>   -1.4262    1.0000 </r>
       <r>   -1.4053    1.0000 </r>
       <r>   -1.3755    1.0000 </r>
       <r>   -1.3687    1.0000 </r>
       <r>   -1.3609    1.0000 </r>
       <r>   -1.3274    1.0000 </r>
       <r>   -1.2963    1.0000 </r>
       <r>   -1.2797    1.0000 </r>
       <r>   -1.2077    1.0000 </r>
       <r>   -1.2057    1.0000 </r>
       <r>   -1.2021    1.0000 </r>
       <r>   -1.1908    1.0000 </r>
       <r>   -1.1554    1.0000 </r>
       <r>   -1.1184    1.0000 </r>
       <r>   -1.0626    1.0000 </r>
       <r>   -0.9633    1.0000 </r>
       <r>   -0.8823    1.0000 </r>
       <r>   -0.8435    1.0000 </r>
       <r>   -0.8156    1.0000 </r>
       <r>   -0.7754    1.0000 </r>
       <r>   -0.6998    1.0000 </r>
       <r>   -0.6886    1.0000 </r>
       <r>   -0.6234    1.0000 </r>
       <r>   -0.6091    1.0000 </r>
       <r>   -0.5957    1.0000 </r>
       <r>   -0.5612    1.0000 </r>
       <r>   -0.5563    1.0000 </r>
       <r>   -0.4808    1.0000 </r>
       <r>   -0.4541    1.0000 </r>
       <r>   -0.4287    1.0000 </r>
       <r>   -0.3873    1.0000 </r>
       <r>   -0.3384    1.0000 </r>
       <r>   -0.2882    1.0000 </r>
       <r>   -0.2004    1.0000 </r>
       <r>   -0.1882    1.0000 </r>
       <r>   -0.1394    1.0000 </r>
       <r>   -0.0866    1.0000 </r>
       <r>   -0.0585    1.0000 </r>
       <r>   -0.0392    1.0000 </r>
       <r>   -0.0281    1.0000 </r>
       <r>   -0.0071    1.0000 </r>
       <r>    0.0021    1.0000 </r>
       <r>    0.0355    1.0000 </r>
       <r>    0.0777    1.0000 </r>
       <r>    0.0913    1.0000 </r>
       <r>    0.1351    1.0000 </r>
       <r>    0.2011    1.0000 </r>
       <r>    0.2144    1.0000 </r>
       <r>    0.2766    1.0000 </r>
       <r>    0.2864    1.0000 </r>
       <r>    0.3227    1.0000 </r>
       <r>    0.3445    1.0000 </r>
       <r>    0.3510    1.0000 </r>
       <r>    0.4024    1.0000 </r>
       <r>    0.4250    1.0000 </r>
       <r>    0.5259    0.9999 </r>
       <r>    0.5402    0.9999 </r>
       <r>    0.5605    0.9999 </r>
       <r>    0.5731    0.9999 </r>
       <r>    0.5896    0.9999 </r>
       <r>    0.6196    0.9998 </r>
       <r>    0.6272    0.9998 </r>
       <r>    0.6579    0.9997 </r>
       <r>    0.6949    0.9996 </r>
       <r>    0.7015    0.9996 </r>
       <r>    0.7342    0.9994 </r>
       <r>    0.7409    0.9994 </r>
       <r>    0.7729    0.9991 </r>
       <r>    0.8001    0.9988 </r>
       <r>    0.8111    0.9987 </r>
       <r>    0.8378    0.9983 </r>
       <r>    0.8605    0.9979 </r>
       <r>    0.8702    0.9977 </r>
       <r>    0.8907    0.9972 </r>
       <r>    0.9095    0.9966 </r>
       <r>    0.9217    0.9961 </r>
       <r>    0.9293    0.9958 </r>
       <r>    0.9489    0.9949 </r>
       <r>    0.9653    0.9940 </r>
       <r>    1.0048    0.9911 </r>
       <r>    1.0149    0.9902 </r>
       <r>    1.0574    0.9851 </r>
       <r>    1.0774    0.9818 </r>
       <r>    1.1105    0.9749 </r>
       <r>    1.1220    0.9719 </r>
       <r>    1.1400    0.9666 </r>
       <r>    1.1664    0.9569 </r>
       <r>    1.1833    0.9494 </r>
       <r>    1.1940    0.9440 </r>
       <r>    1.2160    0.9312 </r>
       <r>    1.2364    0.9169 </r>
       <r>    1.2591    0.8979 </r>
       <r>    1.2663    0.8911 </r>
       <r>    1.2736    0.8838 </r>
       <r>    1.2938    0.8613 </r>
       <r>    1.3034    0.8495 </r>
       <r>    1.4033    0.6752 </r>
       <r>    1.4960    0.4514 </r>
       <r>    1.5073    0.4236 </r>
       <r>    1.5222    0.3877 </r>
       <r>    1.5397    0.3470 </r>
       <r>    1.5526    0.3183 </r>
       <r>    1.5900    0.2431 </r>
       <r>    1.8212    0.0308 </r>
       <r>    1.8959    0.0149 </r>
       <r>    2.0877    0.0022 </r>
       <r>    2.2314    0.0005 </r>
       <r>    2.3711    0.0001 </r>
       <r>    2.4432    0.0001 </r>
       <r>    2.5439    0.0000 </r>
       <r>    3.2609    0.0000 </r>
       <r>    3.6138    0.0000 </r>
       <r>    4.1361    0.0000 </r>
       <r>    4.4917    0.0000 </r>
       <r>    4.6635    0.0000 </r>
       <r>    4.8564    0.0000 </r>
       <r>    5.2136    0.0000 </r>
       <r>    5.3679    0.0000 </r>
       <r>    5.7416    0.0000 </r>
       <r>    5.8137    0.0000 </r>
       <r>    5.9181    0.0000 </r>
       <r>    6.2389    0.0000 </r>
       <r>    6.3134    0.0000 </r>
       <r>    6.4450    0.0000 </r>
       <r>    6.6693    0.0000 </r>
       <r>    6.7287    0.0000 </r>
       <r>    6.7485    0.0000 </r>
       <r>    6.9584    0.0000 </r>
      </set>
      <set comment="kpoint 4">
       <r>  -13.1039    1.0000 </r>
       <r>   -8.8328    1.0000 </r>
       <r>   -7.5919    1.0000 </r>
       <r>   -6.3560    1.0000 </r>
       <r>   -5.8921    1.0000 </r>
       <r>   -5.7891    1.0000 </r>
       <r>   -5.6246    1.0000 </r>
       <r>   -5.2901    1.0000 </r>
       <r>   -5.1753    1.0000 </r>
       <r>   -5.1423    1.0000 </r>
       <r>   -5.0966    1.0000 </r>
       <r>   -5.0303    1.0000 </r>
       <r>   -4.9988    1.0000 </r>
       <r>   -4.9680    1.0000 </r>
       <r>   -4.7990    1.0000 </r>
       <r>   -4.7661    1.0000 </r>
       <r>   -4.7316    1.0000 </r>
       <r>   -4.6690    1.0000 </r>
       <r>   -4.5336    1.0000 </r>
       <r>   -4.5186    1.0000 </r>
       <r>   -4.3858    1.0000 </r>
       <r>   -4.2738    1.0000 </r>
       <r>   -4.1958    1.0000 </r>
       <r>   -4.1538    1.0000 </r>
       <r>   -4.1002    1.0000 </r>
       <r>   -4.0926    1.0000 </r>
       <r>   -4.0813    1.0000 </r>
       <r>   -4.0317    1.0000 </r>
       <r>   -4.0068    1.0000 </r>
       <r>   -3.9682    1.0000 </r>
       <r>   -3.9447    1.0000 </r>
       <r>   -3.9218    1.0000 </r>
       <r>   -3.9013    1.0000 </r>
       <r>   -3.8829    1.0000 </r>
       <r>   -3.8468    1.0000 </r>
       <r>   -3.8050    1.0000 </r>
       <r>   -3.7607    1.0000 </r>
       <r>   -3.7355    1.0000 </r>
       <r>   -3.6006    1.0000 </r>
       <r>   -3.5639    1.0000 </r>
       <r>   -3.5253    1.0000 </r>
       <r>   -3.5160    1.0000 </r>
       <r>   -3.4766    1.0000 </r>
       <r>   -3.4480    1.0000 </r>
       <r>   -3.3695    1.0000 </r>
       <r>   -3.2701    1.0000 </r>
       <r>   -3.2125    1.0000 </r>
       <r>   -3.1791    1.0000 </r>
       <r>   -3.1500    1.0000 </r>
       <r>   -3.1229    1.0000 </r>
       <r>   -3.0859    1.0000 </r>
       <r>   -3.0232    1.0000 </r>
       <r>   -2.9437    1.0000 </r>
       <r>   -2.8904    1.0000 </r>
       <r>   -2.8590    1.0000 </r>
       <r>   -2.8289    1.0000 </r>
       <r>   -2.8179    1.0000 </r>
       <r>   -2.7787    1.0000 </r>
       <r>   -2.7317    1.0000 </r>
       <r>   -2.5923    1.0000 </r>
       <r>   -2.5541    1.0000 </r>
       <r>   -2.4512    1.0000 </r>
       <r>   -2.3839    1.0000 </r>
       <r>   -2.3569    1.0000 </r>
       <r>   -2.3300    1.0000 </r>
       <r>   -2.3047    1.0000 </r>
       <r>   -2.2696    1.0000 </r>
       <r>   -2.2335    1.0000 </r>
       <r>   -2.2127    1.0000 </r>
       <r>   -2.1934    1.0000 </r>
       <r>   -2.1476    1.0000 </r>
       <r>   -2.1138    1.0000 </r>
       <r>   -2.0911    1.0000 </r>
       <r>   -2.0771    1.0000 </r>
       <r>   -2.0456    1.0000 </r>
       <r>   -2.0220    1.0000 </r>
       <r>   -2.0098    1.0000 </r>
       <r>   -1.9729    1.0000 </r>
       <r>   -1.8881    1.0000 </r>
       <r>   -1.8591    1.0000 </r>
       <r>   -1.8432    1.0000 </r>
       <r>   -1.8186    1.0000 </r>
       <r>   -1.7899    1.0000 </r>
       <r>   -1.7778    1.0000 </r>
       <r>   -1.7503    1.0000 </r>
       <r>   -1.7290    1.0000 </r>
       <r>   -1.6961    1.0000 </r>
       <r>   -1.6673    1.0000 </r>
       <r>   -1.6440    1.0000 </r>
       <r>   -1.6262    1.0000 </r>
       <r>   -1.5949    1.0000 </r>
       <r>   -1.5806    1.0000 </r>
       <r>   -1.5569    1.0000 </r>
       <r>   -1.5458    1.0000 </r>
       <r>   -1.5337    1.0000 </r>
       <r>   -1.5046    1.0000 </r>
       <r>   -1.4842    1.0000 </r>
       <r>   -1.4620    1.0000 </r>
       <r>   -1.4441    1.0000 </r>
       <r>   -1.4183    1.0000 </r>
       <r>   -1.3980    1.0000 </r>
       <r>   -1.3580    1.0000 </r>
       <r>   -1.3345    1.0000 </r>
       <r>   -1.3058    1.0000 </r>
       <r>   -1.2920    1.0000 </r>
       <r>   -1.2618    1.0000 </r>
       <r>   -1.2549    1.0000 </r>
       <r>   -1.2149    1.0000 </r>
       <r>   -1.1665    1.0000 </r>
       <r>   -1.1516    1.0000 </r>
       <r>   -1.1380    1.0000 </r>
       <r>   -1.0996    1.0000 </r>
       <r>   -1.0907    1.0000 </r>
       <r>   -1.0274    1.0000 </r>
       <r>   -0.9906    1.0000 </r>
       <r>   -0.9636    1.0000 </r>
       <r>   -0.8993    1.0000 </r>
       <r>   -0.8609    1.0000 </r>
       <r>   -0.8372    1.0000 </r>
       <r>   -0.7744    1.0000 </r>
       <r>   -0.6884    1.0000 </r>
       <r>   -0.6477    1.0000 </r>
       <r>   -0.6012    1.0000 </r>
       <r>   -0.5814    1.0000 </r>
       <r>   -0.5633    1.0000 </r>
       <r>   -0.5513    1.0000 </r>
       <r>   -0.5017    1.0000 </r>
       <r>   -0.4366    1.0000 </r>
       <r>   -0.4119    1.0000 </r>
       <r>   -0.3513    1.0000 </r>
       <r>   -0.3279    1.0000 </r>
       <r>   -0.2754    1.0000 </r>
       <r>   -0.1613    1.0000 </r>
       <r>   -0.1527    1.0000 </r>
       <r>   -0.1256    1.0000 </r>
       <r>   -0.0951    1.0000 </r>
       <r>   -0.0781    1.0000 </r>
       <r>   -0.0377    1.0000 </r>
       <r>    0.0038    1.0000 </r>
       <r>    0.0163    1.0000 </r>
       <r>    0.0358    1.0000 </r>
       <r>    0.0922    1.0000 </r>
       <r>    0.1409    1.0000 </r>
       <r>    0.1991    1.0000 </r>
       <r>    0.2209    1.0000 </r>
       <r>    0.2275    1.0000 </r>
       <r>    0.2450    1.0000 </r>
       <r>    0.2534    1.0000 </r>
       <r>    0.2974    1.0000 </r>
       <r>    0.3147    1.0000 </r>
       <r>    0.3477    1.0000 </r>
       <r>    0.3548    1.0000 </r>
       <r>    0.3871    1.0000 </r>
       <r>    0.4290    1.0000 </r>
       <r>    0.4396    1.0000 </r>
       <r>    0.4829    1.0000 </r>
       <r>    0.5051    0.9999 </r>
       <r>    0.5302    0.9999 </r>
       <r>    0.5679    0.9999 </r>
       <r>    0.5867    0.9999 </r>
       <r>    0.6362    0.9998 </r>
       <r>    0.7037    0.9996 </r>
       <r>    0.7428    0.9993 </r>
       <r>    0.7770    0.9991 </r>
       <r>    0.8486    0.9981 </r>
       <r>    0.8612    0.9979 </r>
       <r>    0.8814    0.9974 </r>
       <r>    0.9200    0.9962 </r>
       <r>    0.9384    0.9954 </r>
       <r>    0.9456    0.9951 </r>
       <r>    0.9945    0.9920 </r>
       <r>    1.0275    0.9889 </r>
       <r>    1.0818    0.9811 </r>
       <r>    1.1026    0.9768 </r>
       <r>    1.1157    0.9736 </r>
       <r>    1.1469    0.9643 </r>
       <r>    1.1878    0.9472 </r>
       <r>    1.1967    0.9425 </r>
       <r>    1.2336    0.9190 </r>
       <r>    1.2478    0.9078 </r>
       <r>    1.2758    0.8815 </r>
       <r>    1.2944    0.8606 </r>
       <r>    1.3208    0.8259 </r>
       <r>    1.3443    0.7894 </r>
       <r>    1.3603    0.7616 </r>
       <r>    1.3992    0.6841 </r>
       <r>    1.4130    0.6534 </r>
       <r>    1.4417    0.5860 </r>
       <r>    1.4655    0.5275 </r>
       <r>    1.4782    0.4956 </r>
       <r>    1.5069    0.4244 </r>
       <r>    1.5228    0.3863 </r>
       <r>    1.5754    0.2710 </r>
       <r>    1.6024    0.2211 </r>
       <r>    1.6266    0.1822 </r>
       <r>    1.6738    0.1221 </r>
       <r>    1.6991    0.0974 </r>
       <r>    1.7362    0.0693 </r>
[...]
  <dos>
   <i name="efermi">      1.47646546 </i>
   <total>
    <array>
     <dimension dim="1">gridpoints</dimension>
     <dimension dim="2">spin</dimension>
     <field>energy</field>
     <field>total</field>
     <field>integrated</field>
     <set>
      <set comment="spin 1">
       <r>   -14.1142     0.0000     0.0000 </r>
       <r>   -14.0401     0.0000     0.0000 </r>
       <r>   -13.9661     0.0048     0.0004 </r>
       <r>   -13.8920     0.0053     0.0008 </r>
       <r>   -13.8180     0.0111     0.0016 </r>
       <r>   -13.7439     0.0233     0.0033 </r>
       <r>   -13.6699     0.0487     0.0069 </r>
       <r>   -13.5958     0.1016     0.0144 </r>
       <r>   -13.5217     0.2105     0.0300 </r>
       <r>   -13.4477     0.4310     0.0619 </r>
       <r>   -13.3736     0.8599     0.1256 </r>
       <r>   -13.2996     1.6316     0.2464 </r>
       <r>   -13.2255     2.8198     0.4553 </r>
       <r>   -13.1515     4.1682     0.7639 </r>
       <r>   -13.0774     4.9289     1.1289 </r>
       <r>   -13.0034     4.4984     1.4621 </r>
       <r>   -12.9293     3.2330     1.7015 </r>
       <r>   -12.8553     1.9461     1.8456 </r>
       <r>   -12.7812     1.0490     1.9233 </r>
       <r>   -12.7072     0.5320     1.9627 </r>
       <r>   -12.6331     0.2614     1.9820 </r>
       <r>   -12.5591     0.1265     1.9914 </r>
       <r>   -12.4850     0.0607     1.9959 </r>
       <r>   -12.4109     0.0291     1.9980 </r>
       <r>   -12.3369     0.0139     1.9991 </r>
       <r>   -12.2628     0.0000     2.0000 </r>
       <r>   -12.1888     0.0000     2.0000 </r>
       <r>   -12.1147     0.0000     2.0000 </r>
       <r>   -12.0407     0.0000     2.0000 </r>
       <r>   -11.9666     0.0000     2.0000 </r>
       <r>   -11.8926     0.0000     2.0000 </r>
       <r>   -11.8185     0.0000     2.0000 </r>
       <r>   -11.7445     0.0000     2.0000 </r>
       <r>   -11.6704     0.0000     2.0000 </r>
       <r>   -11.5964     0.0000     2.0000 </r>
       <r>   -11.5223     0.0000     2.0000 </r>
       <r>   -11.4483     0.0000     2.0000 </r>
       <r>   -11.3742     0.0000     2.0000 </r>
       <r>   -11.3001     0.0000     2.0000 </r>
       <r>   -11.2261     0.0000     2.0000 </r>
       <r>   -11.1520     0.0000     2.0000 </r>
       <r>   -11.0780     0.0000     2.0000 </r>
       <r>   -11.0039     0.0000     2.0000 </r>
       <r>   -10.9299     0.0000     2.0000 </r>
       <r>   -10.8558     0.0000     2.0000 </r>
       <r>   -10.7818     0.0000     2.0000 </r>
       <r>   -10.7077     0.0000     2.0000 </r>
       <r>   -10.6337     0.0000     2.0000 </r>
       <r>   -10.5596     0.0000     2.0000 </r>
       <r>   -10.4856     0.0000     2.0000 </r>
       <r>   -10.4115     0.0000     2.0000 </r>
       <r>   -10.3375     0.0000     2.0000 </r>
       <r>   -10.2634     0.0000     2.0000 </r>
       <r>   -10.1893     0.0000     2.0000 </r>
       <r>   -10.1153     0.0000     2.0000 </r>
       <r>   -10.0412     0.0000     2.0000 </r>
       <r>    -9.9672     0.0000     2.0000 </r>
       <r>    -9.8931     0.0000     2.0000 </r>
       <r>    -9.8191     0.0000     2.0000 </r>
       <r>    -9.7450     0.0000     2.0000 </r>
       <r>    -9.6710     0.0061     2.0005 </r>
       <r>    -9.5969     0.0067     2.0010 </r>
       <r>    -9.5229     0.0141     2.0020 </r>
       <r>    -9.4488     0.0295     2.0042 </r>
       <r>    -9.3748     0.0616     2.0087 </r>
       <r>    -9.3007     0.1283     2.0182 </r>
       <r>    -9.2267     0.2650     2.0379 </r>
       <r>    -9.1526     0.5390     2.0778 </r>
       <r>    -9.0785     1.0620     2.1564 </r>
       <r>    -9.0045     1.9671     2.3021 </r>
       <r>    -8.9304     3.2587     2.5434 </r>
       <r>    -8.8564     4.5157     2.8778 </r>
       <r>    -8.7823     4.9241     3.2425 </r>
       <r>    -8.7083     4.1455     3.5494 </r>
       <r>    -8.6342     2.7950     3.7564 </r>
       <r>    -8.5602     1.6146     3.8760 </r>
       <r>    -8.4861     0.8504     3.9390 </r>
       <r>    -8.4121     0.4282     3.9707 </r>
       <r>    -8.3380     0.2124     3.9864 </r>
       <r>    -8.2640     0.1106     3.9946 </r>
       <r>    -8.1899     0.0689     3.9997 </r>
       <r>    -8.1159     0.0672     4.0047 </r>
       <r>    -8.0418     0.1006     4.0121 </r>
       <r>    -7.9677     0.1789     4.0261 </r>
       <r>    -7.8937     0.3394     4.0512 </r>
       <r>    -7.8196     0.5962     4.0954 </r>
       <r>    -7.7456     0.9334     4.1645 </r>
       <r>    -7.6715     1.2889     4.2600 </r>
       <r>    -7.5975     1.5834     4.3772 </r>
       <r>    -7.5234     1.7753     4.5087 </r>
       <r>    -7.4494     1.8779     4.6477 </r>
       <r>    -7.3753     1.9501     4.7922 </r>
       <r>    -7.3013     2.0384     4.9431 </r>
       <r>    -7.2272     2.1069     5.0991 </r>
       <r>    -7.1532     2.1091     5.2553 </r>
       <r>    -7.0791     2.0775     5.4092 </r>
       <r>    -7.0051     2.0836     5.5635 </r>
       <r>    -6.9310     2.1663     5.7239 </r>
       <r>    -6.8569     2.3126     5.8953 </r>
       <r>    -6.7829     2.4578     6.0774 </r>
       <r>    -6.7088     2.5654     6.2674 </r>
       <r>    -6.6348     2.7048     6.4679 </r>
       <r>    -6.5607     2.9737     6.6881 </r>
       <r>    -6.4867     3.4120     6.9409 </r>
       <r>    -6.4126     3.9981     7.2371 </r>
       <r>    -6.3386     4.6183     7.5792 </r>
       <r>    -6.2645     5.1381     7.9597 </r>
       <r>    -6.1905     5.5553     8.3712 </r>
       <r>    -6.1164     6.0307     8.8178 </r>
       <r>    -6.0424     6.6405     9.3097 </r>
       <r>    -5.9683     7.3066     9.8509 </r>
       <r>    -5.8943     7.9335    10.4385 </r>
       <r>    -5.8202     8.4673    11.0655 </r>
       <r>    -5.7461     8.7984    11.7172 </r>
       <r>    -5.6721     8.8217    12.3706 </r>
       <r>    -5.5980     8.6461    13.0110 </r>
       <r>    -5.5240     8.6535    13.6520 </r>
       <r>    -5.4499     9.2545    14.3375 </r>
       <r>    -5.3759    10.6402    15.1256 </r>
       <r>    -5.3018    12.7977    16.0736 </r>
       <r>    -5.2278    15.4712    17.2194 </r>
       <r>    -5.1537    18.1751    18.5657 </r>
       <r>    -5.0797    20.5552    20.0881 </r>
       <r>    -5.0056    22.6229    21.7638 </r>
       <r>    -4.9316    24.6378    23.5887 </r>
       <r>    -4.8575    26.8383    25.5766 </r>
       <r>    -4.7835    29.1718    27.7371 </r>
       <r>    -4.7094    31.2130    30.0487 </r>
       <r>    -4.6353    32.5478    32.4593 </r>
       <r>    -4.5613    33.3535    34.9295 </r>
       <r>    -4.4872    34.4885    37.4838 </r>
       <r>    -4.4132    36.5987    40.1948 </r>
       <r>    -4.3391    39.5297    43.1231 </r>
       <r>    -4.2651    42.8316    46.2955 </r>
       <r>    -4.1910    46.1322    49.7128 </r>
       <r>    -4.1170    48.9069    53.3353 </r>
       <r>    -4.0429    50.5549    57.0800 </r>
       <r>    -3.9689    50.9377    60.8532 </r>
       <r>    -3.8948    50.4380    64.5897 </r>
       <r>    -3.8208    49.4624    68.2539 </r>
       <r>    -3.7467    47.9521    71.8059 </r>
       <r>    -3.6727    45.6845    75.1899 </r>
       <r>    -3.5986    42.9303    78.3705 </r>
       <r>    -3.5245    40.3263    81.3584 </r>
       <r>    -3.4505    38.3997    84.2034 </r>
       <r>    -3.3764    37.7175    86.9983 </r>
       <r>    -3.3024    38.7818    89.8724 </r>
       <r>    -3.2283    41.3099    92.9335 </r>
       <r>    -3.1543    44.0951    96.2009 </r>
       <r>    -3.0802    45.9817    99.6078 </r>
       <r>    -3.0062    46.8581   103.0793 </r>
       <r>    -2.9321    47.4370   106.5945 </r>
       <r>    -2.8581    48.0977   110.1580 </r>
       <r>    -2.7840    48.3706   113.7412 </r>
       <r>    -2.7100    47.7068   117.2757 </r>
       <r>    -2.6359    46.3420   120.7086 </r>
       <r>    -2.5619    45.2213   124.0586 </r>
       <r>    -2.4878    45.4747   127.4270 </r>
       <r>    -2.4137    47.7851   130.9673 </r>
       <r>    -2.3397    51.7236   134.7995 </r>
       <r>    -2.2656    56.1470   138.9595 </r>
       <r>    -2.1916    60.2911   143.4257 </r>
       <r>    -2.1175    63.8900   148.1586 </r>
       <r>    -2.0435    66.6383   153.0953 </r>
       <r>    -1.9694    68.4308   158.1651 </r>
       <r>    -1.8954    69.8644   163.3407 </r>
       <r>    -1.8213    71.5884   168.6436 </r>
       <r>    -1.7473    73.5813   174.0942 </r>
       <r>    -1.6732    75.4682   179.6839 </r>
       <r>    -1.5992    77.0984   185.3948 </r>
       <r>    -1.5251    78.4312   191.2050 </r>
       <r>    -1.4511    79.0914   197.0644 </r>
       <r>    -1.3770    78.4468   202.8757 </r>
       <r>    -1.3029    75.8832   208.4979 </r>
       <r>    -1.2289    71.2680   213.7781 </r>
       <r>    -1.1548    65.3133   218.6174 </r>
       <r>    -1.0808    59.3708   223.0162 </r>
       <r>    -1.0067    54.6030   227.0625 </r>
       <r>    -0.9327    51.4125   230.8726 </r>
       <r>    -0.8586    49.8588   234.5677 </r>
       <r>    -0.7846    50.2268   238.2899 </r>
       <r>    -0.7105    52.6584   242.1924 </r>
       <r>    -0.6365    56.3039   246.3650 </r>
       <r>    -0.5624    59.2649   250.7571 </r>
       <r>    -0.4884    59.8519   255.1921 </r>
       <r>    -0.4143    58.0199   259.4914 </r>
       <r>    -0.3403    55.2046   263.5818 </r>
       <r>    -0.2662    52.8724   267.4990 </r>
       <r>    -0.1921    51.7674   271.3343 </r>
       <r>    -0.1181    51.9208   275.1812 </r>
       <r>    -0.0440    53.0033   279.1078 </r>
       <r>     0.0300    54.7420   283.1630 </r>
       <r>     0.1041    57.0293   287.3880 </r>
       <r>     0.1781    59.6661   291.8085 </r>
       <r>     0.2522    62.0973   296.4102 </r>
       <r>     0.3262    63.6113   301.1232 </r>
       <r>     0.4003    63.5291   305.8297 </r>
       <r>     0.4743    61.6275   310.3954 </r>
       <r>     0.5484    58.5170   314.7305 </r>
       <r>     0.6224    55.4021   318.8350 </r>
       <r>     0.6965    53.4121   322.7921 </r>
       <r>     0.7705    52.9702   326.7167 </r>
       <r>     0.8446    53.6202   330.6896 </r>
       <r>     0.9187    54.6956   334.7418 </r>
       <r>     0.9927    56.1539   338.9026 </r>
       <r>     1.0668    58.5909   343.2436 </r>
       <r>     1.1408    62.2116   347.8532 </r>
       <r>     1.2149    66.3432   352.7689 </r>
       <r>     1.2889    69.7157   357.9340 </r>
       <r>     1.3630    71.0882   363.2003 </r>
       <r>     1.4370    69.7194   368.3652 </r>
       <r>     1.5111    65.5660   373.2221 </r>
       <r>     1.5851    59.4032   377.6232 </r>
       <r>     1.6592    52.4386   381.5085 </r>
       <r>     1.7332    45.2082   384.8586 </r>
       <r>     1.8073    37.6960   387.6517 </r>
       <r>     1.8813    30.4944   389.9119 </r>
       <r>     1.9554    24.6276   391.7379 </r>
       <r>     2.0295    20.4649   393.2561 </r>
       <r>     2.1035    17.6728   394.5680 </r>
       <r>     2.1776    15.7562   395.7374 </r>
       <r>     2.2516    14.3202   396.8011 </r>
       <r>     2.3257    13.2530   397.7852 </r>
       <r>     2.3997    12.6106   398.7208 </r>
       <r>     2.4738    12.3406   399.6366 </r>
       <r>     2.5478    12.2453   400.5454 </r>
       <r>     2.6219    12.1067   401.4433 </r>
       <r>     2.6959    11.9149   402.3261 </r>
       <r>     2.7700    11.8364   403.2034 </r>
       <r>     2.8440    11.9876   404.0916 </r>
       <r>     2.9181    12.3337   405.0056 </r>
       <r>     2.9921    12.6784   405.9449 </r>
       <r>     3.0662    12.8421   406.8965 </r>
       <r>     3.1403    12.8764   407.8504 </r>
       <r>     3.2143    12.9031   408.8063 </r>
       <r>     3.2884    12.8910   409.7613 </r>
       <r>     3.3624    12.6802   410.7009 </r>
       <r>     3.4365    12.2328   411.6072 </r>
       <r>     3.5105    11.6970   412.4737 </r>
       <r>     3.5846    11.2903   413.3103 </r>
       <r>     3.6586    11.2012   414.1401 </r>
       <r>     3.7327    11.5183   414.9935 </r>
       <r>     3.8067    12.1057   415.8906 </r>
       <r>     3.8808    12.5570   416.8209 </r>
       <r>     3.9548    12.5372   417.7498 </r>
       <r>     4.0289    12.1464   418.6497 </r>
       <r>     4.1029    11.6813   419.5153 </r>
       <r>     4.1770    11.3969   420.3598 </r>
       <r>     4.2511    11.4695   421.2095 </r>
       <r>     4.3251    11.8174   422.0851 </r>
       <r>     4.3992    12.0124   422.9749 </r>
       <r>     4.4732    11.7584   423.8461 </r>
       <r>     4.5473    11.3263   424.6852 </r>
       <r>     4.6213    11.1898   425.5142 </r>
       <r>     4.6954    11.4301   426.3615 </r>
       <r>     4.7694    11.7536   427.2322 </r>
       <r>     4.8435    11.8423   428.1098 </r>
       <r>     4.9175    11.5680   428.9668 </r>
       <r>     4.9916    11.0112   429.7825 </r>
       <r>     5.0656    10.4446   430.5562 </r>
       <r>     5.1397    10.1158   431.3060 </r>
       <r>     5.2137    10.0907   432.0539 </r>
       <r>     5.2878    10.2249   432.8114 </r>
       <r>     5.3619    10.3636   433.5792 </r>
       <r>     5.4359    10.5448   434.3604 </r>
       <r>     5.5100    10.8301   435.1630 </r>
       <r>     5.5840    11.1823   435.9915 </r>
       <r>     5.6581    11.4387   436.8390 </r>
       <r>     5.7321    11.4852   437.6900 </r>
       <r>     5.8062    11.3848   438.5334 </r>
       <r>     5.8802    11.1995   439.3631 </r>
       <r>     5.9543    10.9037   440.1709 </r>
       <r>     6.0283    10.5138   440.9498 </r>
       <r>     6.1024    10.0981   441.6981 </r>
       <r>     6.1764     9.7313   442.4191 </r>
       <r>     6.2505     9.5558   443.1271 </r>
       <r>     6.3245     9.6347   443.8410 </r>
       <r>     6.3986     9.7836   444.5658 </r>
       <r>     6.4727     9.7044   445.2852 </r>
       <r>     6.5467     9.2777   445.9725 </r>
       <r>     6.6208     8.6747   446.6153 </r>
       <r>     6.6948     8.1452   447.2189 </r>
       <r>     6.7689     7.7609   447.7941 </r>
       <r>     6.8429     7.3526   448.3388 </r>
       <r>     6.9170     6.6332   448.8306 </r>
       <r>     6.9910     5.4945   449.2377 </r>
       <r>     7.0651     4.0956   449.5414 </r>
       <r>     7.1391     2.7334   449.7441 </r>
       <r>     7.2132     1.6384   449.8658 </r>
       <r>     7.2872     0.8967   449.9328 </r>
       <r>     7.3613     0.4613   449.9671 </r>
       <r>     7.4353     0.2270   449.9843 </r>
       <r>     7.5094     0.1092   449.9925 </r>
       <r>     7.5835     0.0503   449.9966 </r>
       <r>     7.6575     0.0219   449.9985 </r>
       <r>     7.7316     0.0078   449.9995 </r>
       <r>     7.8056     0.0026   449.9998 </r>
       <r>     7.8797     0.0004   450.0000 </r>
       <r>     7.9537     0.0000   450.0000 </r>
       <r>     8.0278     0.0000   450.0000 </r>
       <r>     8.1018     0.0000   450.0000 </r>
      </set>
     </set>
    </array>
   </total>
  </dos>
 </calculation>
 <structure name="finalpos" >
  <crystal>
   <varray name="basis" >
    <v>       8.42164176       0.00000000       0.00000000 </v>
    <v>       4.21082088       7.29335571       0.00000000 </v>
    <v>       0.00000000       0.00000000      21.87624171 </v>
   </varray>
   <i name="volume">   1343.68315334 </i>
   <varray name="rec_basis" >
    <v>       0.11874169      -0.06855555       0.00000000 </v>
    <v>       0.00000000       0.13711110       0.00000000 </v>
    <v>       0.00000000       0.00000000       0.04571169 </v>
   </varray>
  </crystal>
  <varray name="positions" >
   <v>       0.00000000       0.00000000       0.34283768 </v>
   <v>       0.33333333       0.00000000       0.34283768 </v>
   <v>       0.66666667       0.00000000       0.34283768 </v>
   <v>       0.00000000       0.33333333       0.34283768 </v>
   <v>       0.33333333       0.33333333       0.34283768 </v>
   <v>       0.66666667       0.33333333       0.34283768 </v>
   <v>       0.00000000       0.66666667       0.34283768 </v>
   <v>       0.33333333       0.66666667       0.34283768 </v>
   <v>       0.66666667       0.66666667       0.34283768 </v>
   <v>       0.11111111       0.11111111       0.44761256 </v>
   <v>       0.44444444       0.11111111       0.44761256 </v>
   <v>       0.77777778       0.11111111       0.44761256 </v>
   <v>       0.11111111       0.44444444       0.44761256 </v>
   <v>       0.44444444       0.44444444       0.44761256 </v>
   <v>       0.77777778       0.44444444       0.44761256 </v>
   <v>       0.11111111       0.77777778       0.44761256 </v>
   <v>       0.44444444       0.77777778       0.44761256 </v>
   <v>       0.77777778       0.77777778       0.44761256 </v>
   <v>       0.88790222       0.22121765       0.55213218 </v>
   <v>       0.22358615       0.22081049       0.55197618 </v>
   <v>       0.55640685       0.21988459       0.55223492 </v>
   <v>       0.88990368       0.55329080       0.55132647 </v>
   <v>       0.22395618       0.55048403       0.55254880 </v>
   <v>       0.55769119       0.55138906       0.55206664 </v>
   <v>       0.88721118       0.88748435       0.55258314 </v>
   <v>       0.22266797       0.88596527       0.54973665 </v>
   <v>       0.55756456       0.88701746       0.55189827 </v>
   <v>       0.00390818       0.99421236       0.65572891 </v>
   <v>       0.33242872       0.99195314       0.65497058 </v>
   <v>       0.66680215       0.99803322       0.66273322 </v>
   <v>       0.00384358       0.32912564       0.65670864 </v>
   <v>       0.33739996       0.32656769       0.66286060 </v>
   <v>       0.67347341       0.33383433       0.66170596 </v>
   <v>       0.00243905       0.66215710       0.65684742 </v>
   <v>       0.33398374       0.66376386       0.65568232 </v>
   <v>       0.66943695       0.66381797       0.65655716 </v>
   <v>       0.52119926       0.18128566       0.73155188 </v>
   <v>       0.61785212       0.27910450       0.75001914 </v>
   <v>       0.46771759       0.12489046       0.76608797 </v>
   <v>       0.53217288       0.41018857       0.77374261 </v>
   <v>       0.74795166       0.19438634       0.77434508 </v>
  </varray>
  <varray name="selective"  type="logical" >
   <v type="logical" >  F  F  F </v>
   <v type="logical" >  F  F  F </v>
   <v type="logical" >  F  F  F </v>
   <v type="logical" >  F  F  F </v>
   <v type="logical" >  F  F  F </v>
   <v type="logical" >  F  F  F </v>
   <v type="logical" >  F  F  F </v>
   <v type="logical" >  F  F  F </v>
   <v type="logical" >  F  F  F </v>
   <v type="logical" >  F  F  F </v>
   <v type="logical" >  F  F  F </v>
   <v type="logical" >  F  F  F </v>
   <v type="logical" >  F  F  F </v>
   <v type="logical" >  F  F  F </v>
   <v type="logical" >  F  F  F </v>
   <v type="logical" >  F  F  F </v>
   <v type="logical" >  F  F  F </v>
   <v type="logical" >  F  F  F </v>
   <v type="logical" >  T  T  T </v>
   <v type="logical" >  T  T  T </v>
   <v type="logical" >  T  T  T </v>
   <v type="logical" >  T  T  T </v>
   <v type="logical" >  T  T  T </v>
   <v type="logical" >  T  T  T </v>
   <v type="logical" >  T  T  T </v>
   <v type="logical" >  T  T  T </v>
   <v type="logical" >  T  T  T </v>
   <v type="logical" >  T  T  T </v>
   <v type="logical" >  T  T  T </v>
   <v type="logical" >  T  T  T </v>
   <v type="logical" >  T  T  T </v>
   <v type="logical" >  T  T  T </v>
   <v type="logical" >  T  T  T </v>
   <v type="logical" >  T  T  T </v>
   <v type="logical" >  T  T  T </v>
   <v type="logical" >  T  T  T </v>
   <v type="logical" >  T  T  T </v>
   <v type="logical" >  T  T  T </v>
   <v type="logical" >  T  T  T </v>
   <v type="logical" >  T  T  T </v>
   <v type="logical" >  T  T  T </v>
  </varray>
  <nose>
   <v>      -3.00000000       0.00000000       0.00010000       0.00010000 </v>
  </nose>
 </structure>
</modeling>
